LAMMPS data file via write_data, version 2 Aug 2023, timestep = 22, units = metal

4 atoms
5 atom types

0 15 xlo xhi
0 15 ylo yhi
0 15 zlo zhi
0 0 0 xy xz yz

Masses

1 28.0855
2 15.999
3 12.011
4 1.00784
5 18.998

Atoms # atomic

3 4 7.026507442112874 6.973585253156587 6.741791923561284 0 0 0
2 4 7.416231303416996 7.434347865927804 8.567879596816535 0 0 0
4 5 8.757140311040061 8.026780564789878 7.119457215176815 0 0 0
1 3 7.547426261689069 7.560696704562732 7.495237764964364 0 0 0

Velocities

3 0 0 0
2 0 0 0
4 0 0 0
1 0 0 0
