LAMMPS data file via write_data, version 2 Aug 2023, timestep = 15, units = metal

4 atoms
5 atom types

0 15 xlo xhi
0 15 ylo yhi
0 15 zlo zhi
0 0 0 xy xz yz

Masses

1 28.0855
2 15.999
3 12.011
4 1.00784
5 18.998

Atoms # atomic

3 5 6.901367816954942 6.255100118931123 7.220110147479451 0 0 0
4 5 8.77885401877437 7.411355101249396 7.0420523468695855 0 0 0
1 3 7.551868368660711 7.369638725055757 7.575076419495705 0 0 0
2 4 7.50723786760098 7.606421427111721 8.642050011452257 0 0 0

Velocities

3 0 0 0
4 0 0 0
1 0 0 0
2 0 0 0
