LAMMPS data file via write_data, version 2 Aug 2023, timestep = 77000, units = metal

795 atoms
5 atom types

0 20 xlo xhi
0 20 ylo yhi
0 30 zlo zhi
0 0 0 xy xz yz

Masses

1 28.0855
2 15.999
3 12.011
4 1.00784
5 18.998

Atoms # atomic

728 1 1.8927165762396336 1.2528687096594384 2.544675743644143 -9 -10 2
549 2 2.5455560545401728 19.85523986432607 1.968682255846763 -9 -11 2
694 1 2.705572507910798 19.10638345386332 0.43392139073826136 -9 -11 2
449 2 0.5618988681294099 1.7487618016700042 1.6851226212639754 -9 -10 2
70 2 2.875262198342496 2.6542523851247637 2.6975834836423243 -9 -10 1
761 1 5.661225305761979 2.4109690900208696 0.12168622643829669 -10 -10 2
753 2 5.487774891520175 2.743313782535903 1.8168472054784968 -9 -10 2
569 2 8.542907800796865 0.3647626525428237 2.212978083464846 -10 -10 2
597 1 9.302558267144523 1.7976753522436075 2.282224388452248 -9 -10 2
630 2 10.758812415111569 1.4518122597269199 1.6327629593774629 -9 -10 2
709 2 9.319568653125355 2.4147278837186192 3.717191155018772 -10 -10 2
631 2 8.531582640246446 2.844612308933649 1.3406056785124614 -10 -10 2
579 2 13.203246173248662 0.5516408765583787 0.8075504942655948 -10 -10 2
568 1 12.347546973582366 1.6356254213443284 1.7859694876758536 -9 -10 2
335 2 12.691944804837883 1.3662091932101421 3.355747934315973 -10 -10 1
580 2 15.22344699896664 19.493514209241777 2.201710317515973 -10 -11 2
672 1 14.859098802933088 0.466656180065613 0.8360143329512673 -10 -10 2
608 2 15.166744325819899 2.1352906397550453 0.7002347090229293 -10 -10 2
674 2 12.806951237574804 3.1795112931981584 1.2919661615777382 -10 -10 2
582 2 18.13915099266608 0.8015800586010741 1.2425540942519957 -10 -10 2
578 1 18.960056808864014 1.851494825183364 2.139161048319001 -10 -10 2
715 2 17.95598891335522 3.1238714358605075 2.05007849368855 -10 -10 2
53 2 15.832249073624336 2.667208828520351 3.715418866024429 -10 -10 1
622 2 19.607045716088187 5.575189591581524 1.9774246715937056 -10 -10 2
648 1 19.790628425480723 5.849005323806057 0.3792017293487075 -10 -10 2
625 2 0.9126003417103643 7.174460658087312 0.13046716372222414 -9 -10 2
592 1 2.6499728523684447 6.841279258897531 0.2754727756277556 -9 -10 2
759 2 2.9333139679452054 7.041075184523367 1.7960835148697343 -9 -10 2
755 1 4.372111452372894 3.3300875038955544 2.905411226299857 -9 -10 2
701 2 4.017430624037765 4.892193628452586 2.7342121494776026 -10 -10 2
758 1 4.098044102463607 6.4775603339184675 2.712746790635983 -9 -10 2
593 2 5.536985446550583 6.848721925241011 2.046344305803387 -9 -10 2
607 2 8.04155045609165 6.609905628428745 2.8199237095783567 -10 -10 2
601 1 9.621802641285944 6.499175343455512 3.0984455432552584 -10 -10 2
732 2 10.381107791704085 6.49725211671683 1.6156732944862757 -10 -10 2
533 1 10.238934286727153 6.049652704729812 29.988779655638076 -10 -11 1
524 1 8.553763460812986 3.3687650020413735 29.772480242845 -9 -10 1
525 2 9.008550592466591 4.963434108526162 29.910974697404058 -9 -10 1
681 1 14.341784232537886 3.5398958881845406 0.7604328945347115 -10 -10 2
461 2 15.383513452260523 4.492360512829137 1.701228751155059 -10 -10 2
446 1 16.588044197476812 3.8423611745214075 2.772486093736782 -10 -10 2
635 2 17.224902215896588 5.138935023692066 3.478711627464669 -9 -10 2
450 1 18.592490914691055 6.088904740258836 3.1597523776102845 -10 -10 2
790 2 1.2181204040183398 11.09554947781463 2.1279570003511226 -9 -10 2
788 1 1.7051365859380034 11.411548407689098 3.621487744502741 -9 -10 2
655 1 2.017804693452583 11.339193545603102 0.6657307642704468 -9 -10 2
522 2 5.185465614550066 9.53034085877118 0.6634021799023216 -9 -10 2
735 1 6.700968778372678 7.48139133338698 2.958638846891339 -10 -10 2
661 1 6.304448422165775 10.282096431369933 1.6672003204773798 -10 -10 2
89 2 6.762230733124618 9.073654660761271 2.5987255780796 -10 -10 1
754 2 5.446279748940955 11.414414468988719 2.5289484807379283 -9 -10 2
541 2 11.497597239303003 10.24546797950003 2.8532580363610323 -10 -11 2
764 2 7.53738712471285 10.93492452777883 0.9194151496900016 -10 -10 2
774 2 12.966906975899033 7.589268485638873 2.1711401086311906 -10 -10 2
621 1 14.335144998089726 7.589614445116254 3.156506233860959 -10 -10 2
769 1 12.953144847235372 9.392271214988577 2.3156626499469586 -10 -10 2
768 2 14.097693345831297 9.257567851202662 3.5020269165447155 -10 -10 1
770 2 13.299581412319842 10.218202089645015 0.8615605431525704 -10 -10 2
594 2 18.232283638002286 7.6458347824256245 2.8698423010574587 -10 -10 2
617 2 15.754727044219553 7.445575165067724 2.193558508448517 -10 -10 2
644 1 17.087782672763737 8.488245173544398 1.9970817948915647 -10 -10 2
615 2 16.830268857140304 9.982908547229592 2.550523775845253 -10 -10 2
542 2 17.692436922107863 8.651355855194705 0.5199680219475508 -10 -11 2
624 1 17.57726952263472 10.8703486452644 3.7825629135479284 -10 -10 2
665 2 3.1464434964295815 12.152670933042657 3.5150643282256646 -10 -11 2
657 2 3.438854891073268 12.073017903874517 0.9258222086428429 -9 -10 2
686 2 1.9131157868861655 14.854115120918925 2.751217162701651 -9 -11 2
793 2 1.1277939873246683 15.168738153584766 0.26393745401975877 -9 -10 2
792 1 4.241499008249993 12.479992977242391 2.3021782896837486 -9 -10 2
658 2 4.773094203355887 13.97610152779114 1.9506546307603512 -9 -11 2
698 1 5.864045890975046 14.531145940477135 0.9167882224072704 -9 -11 2
668 2 7.285266532390374 13.984409122639418 1.436045633198448 -10 -11 2
725 2 9.538413627502367 12.691850275775568 2.49017435298483 -9 -11 2
532 1 8.872454251326744 13.717862324669255 1.3411817649290996 -10 -11 2
3 1 11.022564271373799 11.913419418462091 2.9199912953059046 -10 -11 1
561 2 9.59768003676471 15.211914963780071 1.3617713380690777 -9 -11 2
633 2 12.220909227430681 12.723302353645828 2.1472562378405846 -10 -10 2
599 1 12.96240554138004 13.645213545409558 0.963256202117849 -9 -11 2
10 2 14.48641625399558 13.131920993613024 0.6485279970865755 -10 -11 1
702 2 13.031110827796102 15.154482944598673 1.5575824868873362 -10 -11 2
553 2 19.54695233258085 13.827952802906298 1.7886743295389882 -10 -10 2
555 1 18.198856024838978 12.930866346833568 1.5577154753910114 -10 -11 2
619 2 17.882972036113685 12.217344420955207 2.954149616672025 -10 -10 2
649 2 17.02691079979126 13.721414077919631 0.9714009242575692 -10 -10 2
557 2 18.731929672930995 11.677764062470636 0.5964174123577304 -10 -11 2
591 2 19.7933861560108 18.985307098882906 3.516490803882773 -10 -11 2
586 1 19.81183668649286 17.34873263771275 3.7374244224104944 -10 -11 2
583 2 19.83212789676511 16.48726678861722 2.326439811897569 -10 -11 2
687 1 0.5974459010757913 15.100908570339854 1.8057215027118672 -9 -11 2
556 2 1.2017990837213024 18.381986438166734 0.0916184209478983 -9 -11 2
731 2 4.1305044916111235 18.285276455085878 0.47790081008421254 -9 -11 2
596 2 6.526079393417064 18.719752415582647 1.79352874147446 -9 -11 2
600 1 5.776934219700061 17.846233908727292 0.6350493896394002 -9 -11 2
427 2 5.766273549259967 16.20180083646751 0.946566109962917 -9 -11 2
43 1 7.928921974715784 18.92922821639025 2.5918281419310323 -10 -11 1
730 2 8.880844067924267 17.693318525103514 2.1721107590557005 -9 -11 2
733 1 9.766558932576528 16.815976723010905 1.0479960095299616 -10 -11 2
708 2 11.359206089336801 17.095649548861946 1.3234438752469573 -10 -11 2
679 2 11.647723561896493 15.96919326842453 3.709754941853418 -10 -11 2
414 2 13.692085905599072 17.373292328506885 2.740434777513669 -10 -11 2
675 1 12.4183968234955 16.41186889364159 2.3909232030175938 -10 -11 2
550 1 15.00981449207683 17.849867985783984 2.1397118113034304 -10 -11 2
544 2 15.083063646113155 17.480659203898647 0.5769336644972606 -10 -11 2
552 2 16.171242721451783 16.918903340862546 2.9196940096762733 -10 -11 2
722 2 1.6052791473367574 0.8987116836528204 4.116861538867054 -9 -10 2
718 1 0.08843365135116978 0.34829244609435517 4.480501838972463 -9 -10 2
710 2 19.758175598480086 0.27263615141606845 6.046555311910658 -10 -10 2
22 2 1.3322138719799312 2.801780075553586 7.029103230682779 -9 -10 2
30 2 5.812599540290594 0.7899307754571439 5.004618289536537 -9 -10 1
729 2 4.059975307331423 2.262670963452176 6.793021873198286 -9 -10 2
73 1 5.273898359420416 2.1825575314504655 5.693600500040165 -9 -10 1
700 2 6.520993813780961 2.5824469158134074 6.788720503068266 -10 -10 2
756 2 4.840437494336179 3.0925551759367615 4.462446920380298 -9 -10 2
713 2 11.354286619659476 0.5425016783225576 5.257313345652106 -10 -10 2
121 1 12.12678727458484 1.865378615484607 4.835416293783097 -10 -10 1
742 2 13.500791219376895 2.3285365089712196 5.584511970309647 -10 -10 2
721 2 15.318999638945632 19.2836790458837 7.5527580317842355 -10 -11 2
47 2 11.234182127293526 3.281700039761949 5.037182527184781 -10 -10 1
740 1 15.088629575769104 2.5719638253000223 5.218649747170022 -10 -10 2
719 2 19.004283889028287 1.431905528897702 3.7519920573266865 -10 -10 2
720 1 19.19449928927068 19.613929243633816 7.4499415703329595 -10 -11 2
65 1 16.187392141605564 0.6989962824140272 7.609374091333788 -10 -10 1
46 2 15.976892220414925 1.4952971699007724 6.155096068595969 -10 -10 1
791 2 1.0137028357386433 5.59946013434719 6.7931490240097325 -9 -10 2
135 1 19.761986821845564 6.435771181300556 6.012397291618499 -10 -10 1
77 2 6.254432825986851 5.147828003005467 6.726544682543193 -10 -10 2
83 1 5.793976499253266 6.499102806212473 7.570734669579195 -10 -10 1
610 2 10.005051067829584 5.085376804811225 3.7135008492174935 -10 -10 2
567 1 7.356840264357455 3.9823351710143062 6.9504940497664185 -9 -10 2
431 2 8.587376191572908 3.9117488068522706 5.724764929624906 -9 -10 2
738 1 9.76759323943486 3.784000125476183 4.603525580501324 -10 -10 2
795 2 10.86089294227832 7.223543890151314 6.580633468886848 -9 -10 2
752 1 11.881946149060633 6.146814115457266 7.2902990058664185 -10 -10 2
602 2 13.057861517828384 5.79852948120284 6.342632729689389 -9 -10 2
779 1 14.541884486731554 5.678763565613547 5.768034523688532 -10 -10 2
744 2 15.102790481978461 4.202256826323553 5.4842980312699945 -10 -10 2
781 2 14.37240170433056 6.432911357062646 4.301702890556616 -10 -10 2
584 2 19.51794436984259 6.008946451868536 4.491297481659047 -10 -10 2
745 1 16.82283683872176 5.867104215918413 7.5487083717443735 -10 -10 2
133 2 18.417440041352386 6.061143803858259 7.021952793644369 -10 -10 1
741 2 15.750643269964863 6.457907612481986 6.575507235994784 -10 -10 2
94 2 0.012729507165423735 8.082258090844128 5.831800476733417 -9 -10 1
717 1 0.09596915051517031 9.62122298748772 5.318464407318396 -9 -10 2
243 2 19.872911115236146 10.4396411638834 6.86752977288592 -10 -10 1
685 2 1.5637167617111383 10.10095366074707 4.735699353532243 -9 -11 2
604 2 3.866354411649309 7.190409527050581 4.130489325435832 -10 -10 2
86 2 4.728070963577072 7.251575178141316 6.598710913740599 -10 -10 1
766 1 4.965552683871239 8.005992633771841 5.1749322885922995 -10 -10 1
734 2 5.04633538150485 9.661486733007079 5.431032117442062 -10 -10 2
736 2 6.34544171309567 7.378060025606771 4.543253925386686 -10 -10 2
760 1 5.417451517347991 10.772835771656297 6.690402588443135 -9 -10 2
5 2 9.792923937713176 7.7539487345129565 4.179140154691051 -10 -10 1
148 2 8.73797999666386 8.664191580617848 6.640957214305154 -10 -11 1
767 1 10.10717613144189 8.324015995717929 5.688278219451917 -10 -10 2
111 2 10.980133554329539 9.743567238643323 5.529166243301421 -9 -11 1
739 2 18.896369721358603 10.101643899715963 4.447249069211791 -10 -10 2
748 2 17.311556484218727 10.465642945590762 7.260153186639438 -10 -10 2
138 2 0.8459893539941348 12.531309025444688 4.446146399154322 -9 -10 1
786 2 1.6741886554331056 12.690606076524098 6.9220106992238275 -9 -11 2
785 1 0.897570341650873 13.501241264828238 5.694383502330824 -9 -10 2
223 2 19.431777917730468 14.229506410953137 5.845620345698622 -10 -10 1
747 2 2.066209114002736 14.61717349638596 5.3688695694585915 -9 -10 2
143 2 6.167553214387221 12.229213027336876 6.561907030293828 -9 -10 1
69 1 6.9061665449683085 13.419787802388196 7.389421674783596 -9 -11 1
116 2 10.163360181491525 12.065157420526063 6.922837294778565 -10 -10 1
765 2 7.7079703435928915 14.31782087214291 6.304983534414637 -10 -11 1
771 1 11.19536700075719 11.340021799899665 5.896897856223013 -10 -11 2
673 2 11.060562159311756 12.16876566561445 4.464960889072744 -10 -11 2
123 2 12.685347509278554 11.570828890966869 6.578697675593252 -10 -10 1
120 1 13.779036546431865 12.426874077594691 7.546506311485767 -10 -10 1
17 2 13.677892092975029 14.07629080560135 7.329665700133911 -10 -11 1
85 2 15.075992989974791 11.800303142926339 6.925258050596162 -10 -10 1
21 2 17.280979101413575 13.12621875534668 6.636223668871064 -10 -11 1
789 2 16.597268763840113 11.2844954219966 4.916896139088932 -10 -10 2
746 1 16.589607056281615 11.688516080326306 6.4817575563470164 -10 -10 2
777 1 17.849785995916648 14.538290031292467 6.233164521647754 -10 -11 2
99 2 16.79836664582577 15.21831819098447 5.073295470841772 -10 -11 1
684 2 1.2803022546729155 16.827414117984794 4.425656689173079 -9 -11 2
688 1 2.332741585503525 15.651206469156236 4.139007297961503 -9 -11 2
727 1 6.37760564299241 19.205361155487296 5.260413860630657 -9 -11 1
109 2 7.548802906581411 18.932809205166095 4.2260847166398605 -9 -11 1
699 2 6.850700062234156 19.22416585068426 6.87178776798685 -9 -11 2
692 2 3.8473890468753 16.220677781939767 3.9749249982189654 -9 -11 2
63 2 5.197557006026974 18.009502319358447 5.269603996796787 -9 -11 1
562 1 5.15875552713967 16.38854286359185 5.054789834244294 -9 -11 2
132 2 4.68088903700786 15.749040269138284 6.460582180312675 -9 -10 1
71 2 6.630172279663851 15.765446750785086 4.605132678491203 -9 -11 1
671 2 7.895734659656782 16.882768464365054 6.559474241931596 -10 -11 2
763 1 7.976506135594712 15.697043030340687 5.535944969896913 -10 -10 2
678 2 9.463916772834931 15.72732829959632 4.8307035261620745 -10 -11 2
182 2 10.915279723599113 17.96334370396736 5.358566663852183 -10 -11 1
677 1 10.933027406174823 16.390832058136077 5.163864542865845 -10 -11 2
82 2 11.629911213649057 19.41886955153885 7.6034142346797875 -10 -11 1
716 1 11.830211392229375 19.109693445650116 5.988064450159366 -10 -11 2
620 2 13.38524896500586 18.636430823432427 5.966231850881741 -10 -11 2
618 1 14.710384823166935 18.04017392061965 6.659720111963839 -10 -11 2
680 2 11.822757802173198 15.688826665731497 6.315575070838555 -10 -11 2
19 1 12.978612891574372 15.62650573183256 7.390850710404911 -10 -11 1
682 2 14.161952320002895 16.679846730918996 7.316409069460709 -10 -11 2
54 2 19.185734720493933 17.91897125175751 7.251573502099288 -10 -11 1
590 2 18.40625322544973 17.049688563842306 4.492075609798425 -10 -11 2
52 2 15.996961460321085 17.805914501575852 5.58269556210716 -10 -11 1
23 1 16.798854013447727 16.76015771585288 4.4822344242702385 -10 -11 1
723 1 2.858130530424971 2.526713085226602 7.755215287869238 -9 -10 2
67 2 0.37990624152350466 0.05006791861040624 8.5257975991036 -9 -10 1
166 2 1.585757320282394 0.19727711594319353 10.923598527094594 -9 -10 1
66 1 1.7791765191175755 19.963509121363472 9.278296785527957 -9 -11 1
192 2 2.6575786905356558 1.2062265602136764 8.697716075362546 -9 -10 1
36 2 6.296460385672673 19.837056721902716 10.631605865652084 -10 -11 1
227 2 6.620293415941152 2.6856332068787765 10.925189088141186 -9 -10 1
78 2 8.58943175092359 1.0892944736173655 10.361842238444604 -10 -10 1
40 1 7.2104972445865645 1.1372082674473094 11.109786198101219 -10 -10 1
712 1 10.07587339248184 1.8654851353329114 10.41007149309465 -10 -10 2
45 2 10.097960216205825 3.3082342978922603 9.803321486648779 -10 -10 1
95 2 11.22657448267284 0.7867516305993323 9.917350988563923 -10 -10 1
201 2 17.72014404302375 0.22248313326218244 7.7414479917737875 -10 -10 1
62 2 17.474468944571036 19.62585962862828 10.896220088301042 -10 -11 1
160 2 15.550111323474571 1.810460817585464 8.6418028553558 -10 -10 1
221 2 17.50033555703229 2.9799896846512586 10.008561884322017 -10 -10 1
218 1 16.09673843950835 3.3255345322956167 9.312620585007622 -10 -10 1
750 1 1.2654599122508001 4.301278699396591 7.766141588086687 -9 -10 2
103 2 0.21652215505613187 4.693371484283481 9.011667074128015 -9 -10 1
131 1 19.976343129095106 5.401704760352034 10.459817303385213 -10 -10 1
751 2 2.832705258082022 4.060610126947007 8.353569991891328 -9 -10 2
603 2 3.758544143874433 4.67112352604709 10.832135076631129 -10 -10 2
100 2 6.292271527756529 5.446859342202877 11.013449125201525 -9 -10 1
112 2 4.86838960474484 6.240303981365193 8.871825676642656 -10 -10 1
762 1 4.8140571177506075 5.970459095580703 10.475123478415725 -9 -10 2
743 2 11.172982127090712 4.674653862560431 7.686170867773928 -10 -10 2
711 2 8.428304865519248 4.3591559688750845 8.182164317793886 -10 -10 2
87 1 9.917745291983664 4.589733350219515 8.73735195718444 -10 -10 1
28 2 9.967552507496436 6.017080577957716 9.50372597591631 -10 -11 1
714 2 12.415016708952386 6.759899280082671 8.670061467988909 -10 -10 2
749 2 15.260641713861379 4.251364639082734 10.48084230769072 -10 -10 1
128 1 11.209852706344295 7.189495394112263 9.730578560965583 -10 -10 1
96 2 16.33695499388915 4.324667705536927 8.035118776454256 -10 -10 1
92 2 16.858029099985007 6.655695727047668 9.016529231342142 -10 -10 2
119 2 19.17297356502198 6.835153513386283 10.336943156967218 -10 -10 1
670 2 1.5350839262933091 9.558732467811183 11.134239304790597 -10 -11 2
695 1 1.624440279214117 11.14595583883798 10.585484187109335 -9 -11 2
137 2 1.9316586111899514 10.99104885093813 9.004765083872835 -9 -10 1
106 2 6.453536841914338 9.721310301143378 7.5223178960731945 -9 -10 1
16 2 3.9725771911950614 11.146982605975813 7.396143525740987 -10 -11 1
230 2 4.57971392941948 7.27163565596645 11.505070178512977 -9 -10 1
81 2 7.320265835903893 7.115766713522897 8.053208815167535 -10 -10 1
4 1 7.65042866337316 8.679392362441165 7.8393607581708675 -10 -11 1
114 2 8.18453542507047 9.116672245228262 9.394384625458446 -10 -10 1
115 1 9.586905246055203 9.5911056054166 9.937053377156332 -10 -10 1
117 2 10.66466268817962 8.585034780730997 9.241615854102161 -10 -10 1
141 2 9.819167019246763 11.110524373362733 9.28670229178622 -10 -10 1
787 1 18.732253796065407 10.053725709896034 7.877227673293973 -10 -10 2
130 2 18.74088634929152 8.498216721164763 8.275831769410262 -10 -10 1
248 1 18.084675497181717 7.591107319380772 9.49269083331133 -10 -10 1
127 2 17.297682619704 8.608879756495913 10.415483563993698 -10 -10 1
784 2 18.776716064542175 10.838843908934857 9.319480429397977 -10 -10 1
164 2 16.187336198508426 10.981534233133734 11.024554943331527 -10 -11 1
666 1 2.716788735368638 12.003073818219343 7.976320024693369 -9 -11 2
782 2 0.28048939666786266 11.941456704269957 11.035833369917253 -9 -10 2
691 2 1.3233386149861115 14.328575510725285 10.283896695942197 -9 -11 2
697 2 2.7322094820770877 12.104606342122597 11.240085617074485 -9 -11 2
136 1 2.7427578505415435 13.51869643837764 10.480718702944564 -9 -10 1
690 2 3.300221031045607 13.220455778635634 9.036345033536216 -9 -11 2
8 2 5.762788802677532 14.263561357961468 8.258185429099136 -10 -11 1
49 2 8.09030346917536 12.761773153692356 8.269094062215418 -10 -11 1
140 1 9.662235332099856 12.377525561856888 8.441551439980062 -9 -10 1
775 2 10.375365624903326 13.58318903162792 9.250513085035196 -10 -10 2
12 1 11.067912867267522 14.994291103977812 9.837091384730186 -10 -11 1
18 2 13.527258097346945 11.943047852379996 9.117841307453793 -10 -11 1
15 1 13.759872126188847 12.983072377405236 10.308173038676737 -10 -11 1
118 2 12.644347848337533 14.215319241714987 10.33695927810757 -10 -11 1
58 2 15.254582869743762 13.5259377014102 10.13706594642118 -10 -11 1
156 1 18.75939823208584 11.53462814822906 10.764211497566906 -10 -11 1
14 2 17.818254419690184 12.854875968341627 10.667740677406144 -10 -11 1
683 1 16.234076061094033 12.589672298326393 11.04331334492731 -10 -11 2
76 2 2.3537946420541846 18.40908409379422 9.154936851487673 -10 -11 1
56 2 19.72212248066651 16.270040132858163 9.256991324928757 -10 -11 1
26 1 0.38600415320290343 15.52129257227854 10.484124294814405 -9 -11 1
64 2 1.7413950858804805 16.623759451272054 10.960997357054536 -9 -11 1
175 1 3.1123502014489155 17.231848263370022 9.910657782922526 -10 -11 1
32 2 4.464854430822029 17.65077716865633 10.679024386435582 -9 -11 1
39 1 4.976801250760251 15.643322561736134 8.024403221819862 -10 -11 1
68 2 3.58101177475761 16.00013721689618 8.927925610659933 -9 -11 1
48 2 5.835693920465203 17.162884714945022 8.226563081581897 -10 -11 1
75 1 7.233021737786855 17.804065276017848 7.630021753110051 -9 -11 1
107 2 8.360633731535787 18.001137451408432 8.704550259417468 -9 -11 1
50 2 10.590224165049172 18.211844228916384 9.867507641470938 -10 -11 1
20 1 9.344849861999808 17.273877876694332 9.775270219795125 -10 -11 1
51 2 9.652326109132401 15.8231740133823 9.265730044549723 -10 -11 1
187 1 11.531915033753332 19.36238148568128 9.221268535140759 -10 -11 1
98 2 13.06535050630794 18.649478495894893 9.538573034516542 -10 -11 1
97 1 13.82461444993163 18.070846420773435 10.858947904582244 -10 -11 1
676 2 12.107782071167428 15.897686903745576 8.82406768232966 -10 -11 2
772 2 17.919226935166673 15.543258887408856 7.569928028343737 -10 -10 2
188 1 16.94492798598442 18.15324236130306 10.48017676422039 -10 -11 1
93 2 15.419812228579827 17.561850433254182 10.59095999075633 -10 -11 1
61 1 18.560737495073035 16.820092137774335 8.275351710965081 -10 -11 1
181 2 17.48209103923655 17.71001578363813 9.001591107750528 -10 -11 1
60 1 2.588024623254404 0.07147738106688614 12.248298140679807 -9 -10 1
359 2 2.2232542330919904 1.1030712076759353 13.480724851992091 -9 -10 1
327 1 2.6015007757301634 2.568715469625566 14.024434417392417 -10 -10 1
105 2 4.210262454594605 0.20349526523477796 11.857011293350281 -9 -10 1
225 2 6.833823314150492 2.650705324575053 14.89573160580497 -9 -10 1
258 2 4.139917593626421 2.799833563658986 14.652300551318667 -9 -10 1
395 2 7.16908218658541 1.0417247612548637 12.777532560044277 -9 -10 1
79 2 9.602991906572303 19.568319515320912 12.877082025247187 -10 -11 1
260 1 7.653509359453445 1.2948961821075158 14.348172223468152 -9 -10 1
206 2 9.264048735487744 1.7180849186555647 14.398231749795594 -10 -10 1
177 2 10.475356043372416 1.989639218692686 11.984002416323687 -10 -10 1
80 1 10.325877417502676 1.046617077220557 13.275353449219276 -10 -10 1
311 2 11.78210774081504 0.7409820067450503 13.876877840962413 -10 -10 1
193 1 13.032335820791845 0.745650942245102 14.942295884689198 -10 -10 1
263 2 14.084649238605039 19.505319052427982 11.852741420424191 -10 -11 1
42 2 14.042020330332008 19.66071579471442 14.40247709787783 -10 -11 1
183 2 13.725975932791501 2.2637527581655474 14.85540289582315 -10 -10 1
101 1 14.999907222409279 19.428277342802854 13.154916051370549 -10 -11 2
207 2 18.543255012599026 19.71779746402955 13.517755567820322 -11 -11 1
24 2 18.529062873415405 1.8209433374499495 12.149114681320505 -10 -10 1
139 1 17.67626579385549 0.3853946495156533 12.292997778511095 -10 -10 1
351 2 16.158462042459654 0.6371750817268649 13.011055675651793 -10 -10 1
219 1 18.02933301879321 3.2805145132634483 11.549568927901008 -10 -10 1
129 2 1.3502916095082864 5.6812805550931165 11.305601307180005 -9 -10 1
224 2 2.1962690676568783 3.4156711289581967 12.683300197804137 -9 -10 1
194 1 2.5462561289429795 4.849995011640158 12.014674884298028 -9 -11 1
667 2 3.257386818678615 5.714871157089925 13.2450680955803 -10 -11 2
354 1 5.610440853213316 3.5947992214384765 14.56378088808778 -9 -10 1
226 2 5.6898919384413995 3.8714463692976544 12.958327303191467 -9 -10 1
108 1 6.7244372992248795 4.115113258439111 11.738747033370867 -10 -10 1
330 1 6.113274665466966 6.491898846304878 14.827564083208449 -10 -10 1
142 2 8.244066824112176 4.512898199088006 12.163806694315415 -10 -10 1
236 1 8.678883697131338 5.828970900438732 13.01381415841668 -10 -10 1
234 2 9.70078710742802 5.65755179344065 14.320575265618695 -10 -10 1
212 2 7.271027181315244 6.359702726777602 13.681439613258824 -10 -10 1
232 2 9.39163160258931 6.997165780062893 12.214001248073206 -10 -10 1
233 2 11.680978533960731 7.333773294826987 11.289436373367012 -10 -10 1
91 2 11.695259642734417 3.9641710272002166 14.396404585306142 -10 -10 1
122 1 13.385018927134862 3.7998361264338243 14.31886324422338 -10 -10 1
242 2 14.169513712702928 4.148115948627186 12.920294631600738 -10 -10 1
104 2 19.218078729519938 4.309417111728635 11.416069352679072 -10 -10 1
210 2 19.037555056610756 3.878374056982969 14.700692473689909 -11 -10 1
84 2 16.752633005725773 3.6007731703722197 12.53286522293426 -10 -10 1
252 1 15.528356143963403 4.563633700534892 12.06605097262406 -10 -10 1
126 2 15.854526004316705 6.172674768643925 12.308935111656115 -10 -10 1
229 2 17.89546379653179 7.4525153825635915 13.975063543228519 -10 -10 1
125 1 16.306197009025016 7.427986296880032 13.334443224122268 -10 -10 1
255 1 19.128993309758044 8.360003740864975 14.431702109869367 -10 -10 1
6 2 0.15777863623043734 8.623502249779913 13.186099493778586 -10 -11 1
7 1 1.5198071139342706 9.272761706929122 12.798963540294993 -10 -11 1
168 2 1.9635464988811933 10.73427859659956 13.30499091206513 -9 -11 1
256 2 2.7721102616655497 8.28391354120397 13.19347927920788 -9 -10 1
257 1 3.881053889612879 7.211065460243624 13.052849462152578 -9 -10 1
757 2 4.9836060930787855 7.358169834156561 14.224015309039736 -9 -10 2
113 2 10.02830732585398 9.451700795251321 11.6169920359445 -10 -10 1
149 1 10.668412609091256 8.108009737318987 12.295349303656783 -10 -10 1
150 2 11.247326024542222 8.538889136366494 13.64487430938087 -10 -10 1
235 1 12.200987417342812 9.554758087719236 14.43522410100495 -10 -10 1
239 2 12.841995745035382 10.605393306815166 13.434213257912782 -10 -10 1
31 1 17.050698620583447 9.679806475001536 11.564059483142403 -10 -11 1
291 2 18.763689346503718 9.78828800767616 15.074653617379546 -10 -11 1
244 2 15.243133531773747 7.454926715418377 14.623642164481838 -10 -10 1
25 2 16.19053859808929 8.920197292601928 12.71821035468425 -10 -11 1
102 2 18.496942335316135 10.409636077590356 11.908990266380224 -10 -10 1
249 1 18.798756247208694 11.436337325865445 15.26921755127223 -10 -10 1
285 2 0.37556575987615604 11.727290262771312 15.137237931745624 -9 -11 1
11 1 1.7845269850085765 11.817658007727838 14.466401736048617 -10 -11 1
250 2 2.0630345937871333 13.316527076897156 13.889441106663503 -9 -10 1
74 1 3.032462655916391 14.38164254271207 13.268639829641947 -9 -11 1
172 2 3.4975072567705006 14.355172482628031 11.690376784942023 -10 -11 1
203 2 4.48192069581495 14.090824655869774 14.042005332031536 -9 -11 1
171 2 6.866443523409487 13.651801333787992 14.750586836101794 -9 -11 1
179 1 5.908146299766711 14.806126851585777 14.17553790846343 -10 -11 1
9 2 10.799543324908283 15.398885413854584 11.452029981350856 -10 -11 1
144 2 13.206969247200181 12.987799684610113 14.139410461438954 -10 -11 1
159 2 13.780048656901778 12.308486925635794 11.724732298700676 -10 -11 1
155 1 13.843446684266292 11.839734213177667 13.307132023858705 -10 -11 1
154 1 12.833925629181566 14.416747004365934 14.791603470402666 -10 -10 1
44 2 15.287401110374896 11.558326821681675 13.937004662327379 -10 -11 1
251 2 17.963425611117184 11.97453143973673 14.07170433021335 -10 -10 1
189 1 16.494225650478434 12.757122533867056 13.970253906331294 -10 -11 1
287 2 16.280096240311114 13.33676058109579 12.457336597701286 -10 -11 1
689 2 19.35890942842775 15.22377896938417 11.73700101023317 -10 -11 2
204 2 2.535504389955283 18.52002005792029 12.83930811157866 -9 -11 1
783 1 1.6820069596588234 17.131481594474117 12.835252799942968 -9 -10 2
157 2 0.19576776706699442 17.316313852056034 13.246853664596202 -9 -11 1
693 2 2.499131605481603 15.945507843901483 13.574180450360567 -9 -11 2
72 1 5.288190229795355 18.920461977196446 11.523717376182585 -9 -11 1
199 2 6.010561752561094 18.294517009858787 12.855927365821225 -9 -11 1
273 2 5.957596246804684 16.35180843530788 14.927329331243971 -10 -11 1
33 2 6.510213919522999 15.434810181846872 12.676728155203957 -9 -11 1
59 1 6.705712834309233 16.924282620359197 13.478935507305087 -9 -11 1
186 2 8.602947871494429 17.472860138240904 11.237863535296704 -10 -11 1
202 2 8.259399143508151 17.334315307012595 13.752172053386534 -9 -11 1
55 1 9.375080170621322 17.961320400404787 12.69579315172506 -10 -11 1
13 2 10.91131373707967 17.38438221270441 13.03737510540448 -10 -11 1
184 2 13.136859491550993 16.883205249062357 11.687958101172338 -10 -11 1
145 1 11.859598940168405 16.21217359701529 12.381769883031307 -10 -11 1
124 2 12.60223984381109 15.584337297741339 13.68615903087571 -10 -10 1
190 2 17.93196877108204 17.288527450187267 11.502623416376718 -10 -11 1
163 1 18.812744092642745 16.5404804916468 12.645865409988868 -10 -11 1
1 2 15.764697322183604 18.024287778824856 13.13013493951404 -13 -14 1
356 1 16.55063965241671 17.274435695029624 14.422262292620427 -10 -11 1
27 2 17.779216234708684 16.38917175108501 13.793791356980917 -10 -11 1
384 2 15.47676954197331 16.366116974560573 15.151927970725488 -10 -10 1
180 2 1.6759941846566109 2.7982109841928255 15.307980378269958 -10 -10 1
476 2 19.568322860617982 2.5798720668325066 16.757071894732487 -10 -10 1
170 2 7.015013934451041 0.6208805480152383 17.32602674552689 -9 -10 1
259 2 7.308484506762665 19.912636733373002 15.136713442474836 -9 -11 1
209 1 8.025237636656897 19.63747764400823 16.577668209020437 -10 -11 1
338 2 9.65443726760463 19.89782447744877 16.553416167565082 -10 -11 1
270 2 10.709203830098087 0.9666238811080247 18.473212947611096 -10 -10 1
271 1 11.128553664811687 19.941237707865195 17.253357578985252 -10 -11 1
321 2 8.28199458024101 2.8236918895748238 17.63385771617881 -10 -10 1
313 2 12.439071987069548 0.4788746928808008 16.487431834782658 -10 -10 1
195 1 18.12271043004552 19.756661660018466 15.124245609158441 -10 -11 1
352 2 17.66481871251314 1.3385942024636754 15.25337588324388 -10 -10 1
308 2 17.190195135975216 19.91509986171467 18.051079497648843 -10 -11 1
349 1 18.213528543122166 2.7667393153476096 15.773697248117974 -10 -10 1
214 2 16.991549134072528 3.5359079010107664 16.413983844716963 -10 -10 1
385 1 0.4004582579907262 3.621473923564096 15.743585181037158 -9 -10 1
167 2 0.6684183522600093 5.00521079877993 16.467366290058056 -9 -11 1