LAMMPS data file via write_data, version 2 Aug 2023, timestep = 478, units = metal

795 atoms
5 atom types

0 20 xlo xhi
0 20 ylo yhi
0 200 zlo zhi
0 0 0 xy xz yz

Masses

1 28.0855
2 15.999
3 12.011
4 1.00784
5 18.998

Atoms # atomic

728 1 1.9243371862776586 1.2935555890521802 2.516036144067918 -9 -10 0
449 2 0.5618988681294099 1.7487618016700046 1.6851226212639754 -9 -10 0
70 2 3.0240511158664773 2.4985313411307466 2.4853043969181012 -9 -10 0
761 1 5.66122530576198 2.4109690900208696 0.12168622643829669 -10 -10 0
753 2 5.487774891520175 2.743313782535903 1.816847205478497 -9 -10 0
755 1 4.3684250148162365 3.318366822144989 2.9035329827763285 -9 -10 0
569 2 8.594392067796509 0.2755229856853153 2.2228139954623765 -10 -10 0
597 1 9.249782593310858 1.77143017163348 2.215423778962992 -9 -10 0
630 2 10.758812415111569 1.4518122597269199 1.632762959377463 -9 -10 0
631 2 8.531582640246446 2.844612308933649 1.3406056785124614 -10 -10 0
579 2 13.203246173248662 0.5516408765583787 0.8075504942655947 -10 -10 0
568 1 12.347546973582366 1.6356254213443289 1.7859694876758536 -9 -10 0
335 2 12.77903342571149 1.5114133903620552 3.3277861275660294 -10 -10 0
672 1 14.859098802933088 0.466656180065613 0.8360143329512673 -10 -10 0
608 2 15.166744325819899 2.1352906397550453 0.7002347090229293 -10 -10 0
674 2 12.806951237574804 3.1795112931981584 1.2919661615777382 -10 -10 0
681 1 14.341784232537886 3.539895888184541 0.7604328945347115 -10 -10 0
582 2 18.13915099266608 0.8015800586010741 1.2425540942519957 -10 -10 0
578 1 18.94532815039816 1.7897883584195249 2.1776328146344888 -10 -10 0
715 2 17.97482983488409 3.1462971402420608 1.9785457267330089 -10 -10 0
446 1 16.625866619222588 3.8157102862366346 2.6547615776858815 -10 -10 0
625 2 0.9126003417103645 7.174460658087312 0.13046716372222414 -9 -10 0
592 1 2.6499728523684447 6.841279258897531 0.2754727756277556 -9 -10 0
759 2 2.9333139679452054 7.041075184523367 1.7960835148697345 -9 -10 0
701 2 4.003143535574844 4.9148708646692345 2.8856962416061744 -10 -10 0
758 1 4.1420624924565 6.5429996556284475 2.8235276695993243 -9 -10 0
593 2 5.611549781386128 6.872837478827805 2.220928238926318 -9 -10 0
735 1 6.852113258743576 7.588251606758371 3.0334862923870545 -10 -10 0
607 2 8.122231398227452 6.639508089379646 2.785056691411504 -10 -10 0
601 1 9.716427737299778 6.535181258904057 3.117499440825832 -10 -10 0
732 2 10.381107791704085 6.49725211671683 1.6156732944862757 -10 -10 0
461 2 15.383513452260527 4.492360512829137 1.701228751155059 -10 -10 0
774 2 12.82967476307479 7.8407627842847125 2.167563738010076 -10 -10 0
621 1 14.254378405101594 7.912166570707835 3.073103081636796 -10 -10 0
617 2 15.605117775614337 7.766170807984575 2.178278441686385 -10 -10 0
622 2 19.607045716088187 5.575189591581524 1.9774246715937056 -10 -10 0
648 1 19.790628425480723 5.849005323806057 0.3792017293487075 -10 -10 0
635 2 17.234088514937515 5.1448402871558265 3.365843330567776 -9 -10 0
450 1 18.581477742787122 6.048559360525342 3.1906550174346773 -10 -10 0
594 2 18.132249336929686 7.574365880884107 2.9412790680819434 -10 -10 0
790 2 1.3514956319653 11.02290340127312 2.16378322354349 -9 -10 0
655 1 2.017804693452583 11.339193545603104 0.6657307642704468 -9 -10 0
522 2 5.185465614550066 9.53034085877118 0.6634021799023216 -9 -10 0
661 1 6.304448422165776 10.282096431369933 1.6672003204773795 -10 -10 0
89 2 6.969392136990703 9.153926339365986 2.65639358632679 -10 -10 0
754 2 5.584819634622104 11.485815206028692 2.5466326505319747 -9 -10 0
764 2 7.53738712471285 10.93492452777883 0.9194151496900017 -10 -10 0
541 2 11.282891651034593 10.307818420795131 2.5188678993039857 -10 -11 0
3 1 10.92353010262806 11.880119765021346 2.758052503052381 -10 -11 0
769 1 12.744954059227076 9.54135751398307 2.2006442097494023 -10 -10 0
768 2 13.841054753820544 9.489066688254066 3.502823040531272 -10 -10 0
770 2 13.299581412319842 10.218202089645015 0.8615605431525705 -10 -10 0
644 1 17.087782672763737 8.488245173544398 1.9970817948915647 -10 -10 0
615 2 16.89587455224456 9.917012372276638 2.751119610952095 -10 -10 0
542 2 17.692436922107863 8.651355855194705 0.5199680219475508 -10 -11 0
557 2 18.731929672930995 11.677764062470636 0.5964174123577304 -10 -11 0
657 2 3.4388548910732686 12.073017903874517 0.9258222086428428 -9 -10 0
686 2 1.8793424495672935 14.867398638072391 2.8147265741684837 -9 -11 0
793 2 1.1277939873246683 15.168738153584766 0.26393745401975877 -9 -10 0
687 1 0.5974459010757913 15.100908570339854 1.8057215027118674 -9 -11 0
792 1 4.289218519321047 12.406475184457502 2.3029718116843276 -9 -10 0
658 2 4.773094203355887 13.97610152779114 1.9506546307603512 -9 -11 0
698 1 5.864045890975046 14.531145940477135 0.9167882224072705 -9 -11 0
668 2 7.285266532390375 13.984409122639418 1.436045633198448 -10 -11 0
725 2 9.43839137353374 12.533416402533524 2.2829332057321907 -9 -11 0
532 1 8.872454251326744 13.717862324669259 1.3411817649290996 -10 -11 0
561 2 9.59768003676471 15.211914963780071 1.3617713380690777 -9 -11 0
633 2 11.856997719908183 12.784611226746943 1.7530614041638743 -10 -10 0
599 1 12.96240554138004 13.645213545409558 0.963256202117849 -9 -11 0
10 2 14.486416253995582 13.131920993613024 0.6485279970865755 -10 -11 0
702 2 13.031110827796102 15.154482944598673 1.5575824868873362 -10 -11 0
553 2 19.54695233258085 13.827952802906298 1.7886743295389882 -10 -10 0
555 1 18.198856024838978 12.930866346833572 1.5577154753910114 -10 -11 0
619 2 18.058401998453924 12.275455403683967 3.0654982739591077 -10 -10 0
649 2 17.02691079979126 13.721414077919631 0.9714009242575692 -10 -10 0
549 2 2.5455560545401728 19.85523986432607 1.968682255846763 -9 -11 0
694 1 2.705572507910798 19.10638345386332 0.4339213907382614 -9 -11 0
556 2 1.2017990837213024 18.381986438166734 0.0916184209478983 -9 -11 0
731 2 4.1305044916111235 18.285276455085878 0.4779008100842126 -9 -11 0
596 2 6.526079393417064 18.719752415582647 1.79352874147446 -9 -11 0
600 1 5.776934219700061 17.846233908727292 0.6350493896394002 -9 -11 0
427 2 5.766273549259967 16.20180083646751 0.946566109962917 -9 -11 0
43 1 7.932482494475598 18.893614319166634 2.63074952319727 -10 -11 0
730 2 8.853028638541067 17.6162709110015 2.167958154452434 -9 -11 0
733 1 9.766558932576528 16.815976723010905 1.0479960095299616 -10 -11 0
708 2 11.359206089336801 17.095649548861946 1.3234438752469573 -10 -11 0
580 2 15.427542186274334 19.580640005021785 2.0735821974604662 -10 -11 0
414 2 13.652900239500095 17.537949024126288 2.7564232865743143 -10 -11 0
675 1 12.499857338818154 16.484022525966182 2.321193635725819 -10 -11 0
550 1 15.16024104353521 17.866002452039538 2.1025566485830014 -10 -11 0
544 2 15.083063646113155 17.480659203898647 0.5769336644972606 -10 -11 0
583 2 19.827734357512554 16.471168610730107 2.354221147612278 -10 -11 0
552 2 16.251716840618386 17.15877177124697 3.128780841019279 -10 -11 0
722 2 1.5775482326689234 1.0599454779160054 4.104096561291534 -9 -10 0
718 1 0.09704992348829425 0.4268099854028039 4.417170757135326 -9 -10 0
30 2 5.695035010649531 0.6840508584332216 5.169768700827778 -9 -10 0
729 2 3.9478678868825874 2.1786493210871427 6.594238114646764 -9 -10 0
73 1 5.322623319006373 2.175711841260837 5.703446352954937 -9 -10 0
700 2 6.591337260076177 2.6988005476983616 6.599687052443992 -10 -10 0
756 2 5.001600974591318 3.0583726296687894 4.379110440967907 -9 -10 0
567 1 7.529673924220744 4.0362417073244705 6.809980652238772 -9 -10 0
709 2 9.320138030361564 2.3431740591902663 3.758924797722142 -10 -10 0
713 2 11.638591911323449 0.6213021685985504 5.508520993822325 -10 -10 0
47 2 11.339190425029663 3.1953629464833377 5.042112777362677 -10 -10 0
431 2 8.669690614893113 4.034583845311277 5.6537940060987 -9 -10 0
738 1 9.829050953024582 3.6741982358964598 4.547831747391526 -10 -10 0
53 2 15.90184000446834 2.70429549791501 3.6427309224204443 -10 -10 0
121 1 12.344165111452616 1.925816496445829 4.852820832830088 -10 -10 0
742 2 13.79670013529057 2.2538978902205336 5.5031539575786494 -10 -10 0
740 1 15.300741765568661 2.7906932605358814 5.178998794439291 -10 -10 0
46 2 16.24695195193446 1.8732262992294149 6.15512327681996 -10 -10 0
710 2 19.928558593572063 0.27460074131910756 6.019538603737481 -10 -10 0
719 2 18.978096167554 1.4537891823905706 3.796692786469233 -10 -10 0
791 2 0.9068133630716801 5.643061219773062 6.745870975324031 -9 -10 0
604 2 3.9178721554425033 7.443102956519702 4.183514300532288 -10 -10 0
77 2 6.38851730860252 5.212933764129851 6.823117540490167 -10 -10 0
86 2 4.832507433042156 7.3981909481151185 6.663218877824692 -10 -10 0
736 2 6.499807764606795 7.597166723033473 4.64437383555998 -10 -10 0
610 2 10.077638192485637 5.086979472703526 3.788522072461218 -10 -10 0
795 2 11.004538592044618 7.225802497698873 6.513166283277311 -9 -10 0
5 2 9.97086762689176 7.770549765241212 4.210783338150114 -10 -10 0
602 2 13.143537214474046 5.636544840683914 6.266456390031372 -9 -10 0
779 1 14.603667781653096 5.877136424824147 5.603616427930576 -10 -10 0
744 2 15.263379225743584 4.4050651255936195 5.385282960519484 -10 -10 0
781 2 14.393072951512114 6.810723061975141 4.293857669903002 -10 -10 0
741 2 15.672228232438787 6.552810999872213 6.644987603932454 -10 -10 0
135 1 19.667980101271688 6.400877703811415 5.973353173557765 -10 -10 0
584 2 19.50859671000849 5.772514830364503 4.4916714425384505 -10 -10 0
788 1 1.7944079319475228 11.389498308267584 3.718743594662773 -9 -10 0
94 2 0.06300069377681192 7.967009666623111 5.719051416715153 -9 -10 0
717 1 0.13863834950382464 9.5630211299932 5.3452442439057135 -9 -10 0
685 2 1.5727901478317845 10.029332574622298 4.6451461354071935 -9 -11 0
766 1 5.0475032479295665 8.092049288676591 5.207728856798176 -10 -10 0
734 2 5.042160734838492 9.74398529224839 5.364616833074189 -10 -10 0
760 1 5.416421897097291 10.715880675238964 6.655712708627948 -9 -10 0
148 2 8.837323349346837 8.812755231095402 6.561446372508452 -10 -11 0
767 1 10.200144981928268 8.398769497172996 5.709713065013673 -10 -10 0
111 2 11.0544754320448 9.800773209803735 5.633445390983728 -9 -11 0
771 1 11.193232086434184 11.419827442214803 5.836789466536498 -10 -11 0
123 2 12.65316476179126 11.87030601145265 6.379243393605402 -10 -10 0
85 2 15.142094977795582 11.988767557682422 7.022501454631878 -10 -10 0
624 1 17.65807156184735 10.884091790820943 3.7787890106240987 -10 -10 0
243 2 19.930857028480077 10.308079524468015 6.79669907318586 -10 -10 0
739 2 18.955015749586742 10.06260050642113 4.361543036050735 -10 -10 0
789 2 16.661683828151304 11.288888146097092 4.996968978364825 -10 -10 0
746 1 16.647949355722325 11.790607694200517 6.526872426189809 -10 -10 0
665 2 3.2926460031497684 12.084688523178237 3.573890622335952 -10 -11 0
138 2 0.8752087431622446 12.515113916110508 4.455325577627528 -9 -10 0
786 2 1.7348852230897336 12.681472396755565 6.978639833905111 -9 -11 0
785 1 1.1072746588115372 13.521077720812373 5.718066156024856 -9 -10 0
747 2 2.2378450445587066 14.654803694164526 5.417120454631095 -9 -10 0
688 1 2.349346691801638 15.678948876629757 4.15460687351942 -9 -11 0
143 2 6.127501838992404 12.203855719222773 6.54324670174314 -9 -10 0
765 2 7.802299643926664 14.152760436235994 6.15683258537813 -10 -11 0
132 2 4.751460962063333 15.912684389794695 6.4661229442527475 -9 -10 0
71 2 6.679880244767444 15.938121782106563 4.590052323320268 -9 -11 0
763 1 8.012295418799527 15.646336067251001 5.55991835805848 -10 -10 0
679 2 11.716030429103576 15.978278822523059 3.6479619362069995 -10 -11 0
116 2 10.101157382336499 11.96654698068928 6.9243030311537295 -10 -10 0
673 2 10.977864823699953 12.153972505387411 4.364274536687363 -10 -11 0
678 2 9.494243748148051 15.793329055409718 4.894227581657121 -10 -11 0
680 2 11.940528066888268 15.780813985035461 6.217292348058237 -10 -11 0
223 2 19.673205190272768 14.268224157918128 5.925034420319646 -10 -10 0
21 2 17.441891509371498 13.204378907696208 6.731923114568997 -10 -11 0
777 1 18.095307603481753 14.599001752285199 6.232996985241486 -10 -11 0
99 2 17.151226798328675 15.266959907774282 5.04963510899131 -10 -11 0
684 2 1.335705044231893 16.93997903679816 4.430051155025636 -9 -11 0
692 2 3.936929556555589 16.106457817138118 4.0051719908381145 -9 -11 0
727 1 6.398340190188505 19.23839505726454 5.323369528328484 -9 -11 0
109 2 7.579420147987028 18.932599698164758 4.226344202267323 -9 -11 0
699 2 6.995485219449985 19.127756419009557 6.8466275225638435 -9 -11 0
63 2 5.23184796470077 18.12160730046954 5.082532039080868 -9 -11 0
562 1 5.165373733334645 16.49758248398419 4.999435998900161 -9 -11 0
671 2 8.02422704502387 16.722700959953904 6.759713257033378 -10 -11 0
182 2 11.007616296813069 18.044602099084365 5.245022915571163 -10 -11 0
677 1 11.020840930967786 16.41160953389983 5.042742360556849 -10 -11 0
716 1 11.989239033713437 19.12035843162637 6.005596551206863 -10 -11 0
620 2 13.567730403614428 18.793611618607 5.693842538986982 -10 -11 0
618 1 14.855605881737668 18.223780300196914 6.546153529709013 -10 -11 0
52 2 16.129512332830338 17.722658091532246 5.6571177361879785 -10 -11 0
591 2 0.05992692074600918 19.044593248735417 3.539017380945385 -9 -11 0
586 1 19.94295209921515 17.426513950581477 3.676219205783058 -10 -11 0
590 2 18.55455369339914 17.30802137488266 4.54068820492605 -10 -11 0
23 1 16.989238329567865 16.851397206571995 4.555714096180326 -10 -11 0
22 2 1.1695839215194546 2.8924762675038833 7.0597928178893 -9 -10 0
723 1 2.7366592454755083 2.555989448134421 7.594536487565722 -9 -10 0
67 2 0.3455946625552008 0.13066083517426375 8.710810036282354 -9 -10 0
192 2 2.7173375167649745 1.3230514046680062 8.678138462363476 -9 -10 0
78 2 8.83317673622225 1.0733903769832744 10.412106773771669 -10 -10 0
712 1 10.30127752571141 1.8224796615641243 10.393178093042007 -10 -10 0
45 2 10.295815544523672 3.31679763797567 9.750007368069813 -10 -10 0
95 2 11.354237272995718 0.9345033467362068 9.52009530108969 -10 -10 0
160 2 15.786871935011353 1.9121604981279976 8.757033475685011 -10 -10 0
65 1 16.3141649891466 0.9290218545500922 7.506329381037288 -10 -10 0
201 2 17.881973411952963 0.4544208234028596 7.723037121906241 -10 -10 0
221 2 17.69680387166702 3.061507135454714 10.087886007632177 -10 -10 0
218 1 16.258995748596796 3.380941917660601 9.38871806523814 -10 -10 0
750 1 1.2284259129225272 4.421151197667022 7.770697397889946 -9 -10 0
103 2 0.2863118257198646 4.6392509239075945 9.088592115193665 -9 -10 0
751 2 2.832011397184981 4.124245264228099 8.194337231193348 -9 -10 0
83 1 5.8489294917308445 6.541132214652208 7.605940879162295 -10 -10 0
112 2 4.96739608742036 6.30493568306223 8.953759450440964 -10 -10 0
762 1 5.054744389328194 5.935261562784801 10.517538364796573 -9 -10 0
81 2 7.194777885420445 7.350346888694798 8.004885989953426 -10 -10 0
752 1 11.88687642738801 6.037326830497566 7.1760585571011655 -10 -10 0
743 2 10.951523342453811 4.714474475112257 7.4924147378413215 -10 -10 0
711 2 8.388169455130335 4.1637599025288035 8.210104308255096 -10 -10 0
87 1 9.895244556505537 4.540937775978713 8.746396346973633 -10 -10 0
28 2 10.01924638245823 5.985956458346323 9.548661315067113 -10 -11 0
128 1 11.254371189466374 7.101168588703347 9.63069359631821 -10 -10 0
714 2 12.43754567043613 6.576079723028312 8.64118849634456 -10 -10 0
749 2 15.377163248028584 4.131853706727017 10.635571536049744 -10 -10 0
745 1 16.841994228122875 5.868146765162539 7.555875028881378 -10 -10 0
133 2 18.288680771389636 6.024119238632158 6.795912487340162 -10 -10 0
131 1 0.03297223871131244 5.363340158799071 10.53618033092009 -9 -10 0
96 2 16.449873989561915 4.350762926296169 8.074061554534124 -10 -10 0
92 2 16.92215546171972 6.68257717309185 8.949465936606952 -10 -10 0
119 2 19.15501365429003 6.733979082356214 10.360480242480357 -10 -10 0
248 1 18.056911286829877 7.650927784951627 9.554786748544599 -10 -10 0
137 2 1.9593858187586957 10.994839952474692 8.981775144010209 -9 -10 0
16 2 3.9468522512633304 11.043759938123523 7.296239913398028 -10 -11 0
106 2 6.482845934607827 9.849179882699806 7.53069276613285 -9 -10 0
4 1 7.755252603204864 8.855167953384802 7.795614536805748 -10 -11 0
114 2 8.329254256838386 9.310044197518483 9.254635432504982 -10 -10 0
115 1 9.800163080273927 9.655848411289472 9.862015459593023 -10 -10 0
117 2 10.816514062247007 8.599597867600131 9.11656102946315 -10 -10 0
141 2 10.062077807797934 11.220169081840925 9.519473442599846 -10 -10 0
18 2 13.378874065839437 12.066242252378439 8.95266319697384 -10 -11 0
748 2 17.327515279445915 10.595035157338433 7.420306885894372 -10 -10 0
787 1 18.782582495140957 10.08268857282866 7.927629497981721 -10 -10 0
130 2 18.786994425736072 8.503997199377535 8.369985947392948 -10 -10 0
127 2 17.187754921676444 8.667218781361044 10.457156735435927 -10 -10 0
784 2 19.13095034823911 10.934731228017974 9.24619879454331 -10 -10 0
666 1 2.8080347635263707 11.974410769578586 7.97136681154286 -9 -11 0
691 2 1.6080825387740483 14.285869301408603 10.039542187739555 -9 -11 0
136 1 3.0334019604372013 13.49762306066793 10.37394297143262 -9 -10 0
690 2 3.5814712904333175 13.153100833320721 8.872665542768093 -9 -11 0
26 1 0.7325437338081785 15.569534427019958 10.40659695152237 -9 -11 0
69 1 7.000683138316076 13.357821226388356 7.339714404477885 -9 -11 0
8 2 6.0181019381758905 14.423366812078527 8.183566250747 -10 -11 0
39 1 5.1992673465980035 15.839012965672225 8.019575725380443 -10 -11 0
49 2 8.097590530359188 12.741887635503273 8.388439316302085 -10 -11 0
140 1 9.733497307555442 12.445302766652567 8.457067106462237 -9 -10 0
775 2 10.602087978122173 13.694001741465232 8.974807283871684 -10 -10 0
12 1 11.276117072339966 15.033150514151343 9.76881211450095 -10 -11 0
51 2 9.829274415869282 15.966523258135778 9.367614731181636 -10 -11 0
120 1 13.69337050754729 12.564708946157763 7.416671483239784 -10 -10 0
17 2 13.714281673216606 14.20713013482846 7.3167886113864915 -10 -11 0
19 1 13.065801624844571 15.715299814544888 7.412506002773367 -10 -11 0
15 1 13.666548884833993 12.94184938091047 10.314727511326275 -10 -11 0
118 2 12.664490845660039 14.161690467618385 10.348195225490894 -10 -11 0
58 2 15.285680190084506 13.339748228118449 10.254598224275234 -10 -11 0
676 2 12.275350243018039 15.982148561703557 8.789218563606822 -10 -11 0
772 2 18.13268910506902 15.698434423584793 7.453616839140451 -10 -10 0
66 1 1.8474970277061822 0.1167212258205151 9.334099367224775 -9 -10 0
76 2 2.5572738404348145 18.6293573744507 9.030657121292766 -10 -11 0
175 1 3.3086127295430314 17.415046423676067 9.808304975255014 -10 -11 0
68 2 3.8127133698507496 16.128018065527108 8.94461536075627 -9 -11 0
48 2 6.092300702602844 17.139749564918866 8.446649510084724 -10 -11 0
75 1 7.409874957250442 17.834986425386177 7.754199609989818 -9 -11 0
82 2 11.666670807866364 19.08068232903081 7.595985897827356 -10 -11 0
107 2 8.459462926113305 18.229726148663552 8.895998786895571 -9 -11 0
50 2 10.816196252145463 18.410163319649886 10.026870700896385 -10 -11 0
20 1 9.506271949443681 17.44726969241101 9.892059442403067 -10 -11 0
187 1 11.777784296209848 19.386644602444974 9.178989693935023 -10 -11 0
721 2 15.412325506999894 19.545022340882447 7.402458267501707 -10 -11 0
682 2 14.244997860915882 16.881068060368953 7.300030430622851 -10 -11 0
98 2 13.29868175835448 19.061597251070246 9.65042583314759 -10 -11 0
720 1 19.34190794992834 19.769540474214516 7.438242045733123 -10 -11 0
54 2 19.398883037726794 18.125718642503898 7.313056584511656 -10 -11 0
56 2 19.989567704074442 16.32625522438973 9.206806898824627 -10 -11 0
188 1 17.122582037766573 18.07791572511528 10.555159410030244 -10 -11 0
61 1 18.780598511138777 16.941776780946206 8.237522551900318 -10 -11 0
181 2 17.635768639506107 17.739852877728328 9.059699993086594 -10 -11 0
166 2 1.8756034691225087 0.3090044874266549 10.973116025291779 -9 -10 0
60 1 2.773361661019977 0.1505317624020145 12.341922191799728 -9 -10 0
359 2 2.4198828642351855 1.1723919912613296 13.53781154676792 -9 -10 0
327 1 2.6665310108940323 2.7217322194367317 14.012869700521389 -10 -10 0
224 2 2.346767919538003 3.5813019923748723 12.661529902957112 -9 -10 0
227 2 6.88510238765526 2.682356094231234 10.922663836143526 -9 -10 0
40 1 7.4054424003685435 1.154202809246844 11.189972364158173 -10 -10 0
105 2 4.372456113874884 0.2517169276736203 12.059332164864248 -9 -10 0
395 2 7.323745092428627 0.958350154163634 12.818128850382799 -9 -10 0
226 2 5.850214713834244 4.005697119456445 12.972957238381417 -9 -10 0
177 2 10.724159858493325 1.9442500354623016 11.975251061290471 -10 -10 0
80 1 10.430945740929772 1.0214627600334762 13.293604260110262 -10 -10 0
311 2 11.850870703758803 0.7686479862676505 14.006608951500851 -10 -10 0
24 2 18.689401973958816 1.73321808870882 12.162636189577567 -10 -10 0
139 1 17.85099579187208 0.37858841236629776 12.502571675479961 -10 -10 0
351 2 16.3456947521435 0.6851982846580406 13.111302922868454 -10 -10 0
219 1 18.192263500033214 3.194052162114162 11.638473202972149 -10 -10 0
84 2 16.975377435631184 3.6326344603518357 12.632455517122876 -10 -10 0
603 2 3.9000157625234455 4.837856941093159 10.892744493931707 -10 -10 0
129 2 1.4567200457981244 5.7364682533759055 11.218423507144536 -9 -10 0
194 1 2.6973638450587756 5.009515514069304 11.977238127736676 -9 -11 0
667 2 3.161786114791197 5.988022991586746 13.196477666720202 -10 -11 0
257 1 4.108948871050138 7.3080670533130725 13.00912382641775 -9 -10 0
100 2 6.525659708989102 5.28312405127 10.766327040996229 -9 -10 0
230 2 4.846823157756615 7.217094389234891 11.538365721263013 -9 -10 0
108 1 6.942512646147389 4.078259681384152 11.762369764255801 -10 -10 0
212 2 7.474227789739672 6.416076400122739 13.91853303688424 -10 -10 0
142 2 8.414030059054985 4.439938912770296 12.404882053732665 -10 -10 0
236 1 8.81379094753538 5.752931687519061 13.315329783494152 -10 -10 0
232 2 9.502702501526883 6.908521112570011 12.437928776136404 -10 -10 0
233 2 11.736998940821469 7.305726231907855 11.185325580589916 -10 -10 0
242 2 14.407990395609776 4.118650148500879 13.242080381193047 -10 -10 0
252 1 15.673826551686362 4.5406430103514595 12.25482378745773 -10 -10 0
126 2 16.162923443653852 6.111557090321524 12.566067779221324 -10 -10 0
104 2 19.361083636909477 4.317747066044973 11.59720208899184 -10 -10 0
229 2 18.176044275259812 7.3541020091220455 14.144626816997558 -10 -10 0
125 1 16.610101324305372 7.350086528600097 13.582460115144357 -10 -10 0
670 2 1.6607096169214117 9.560381851157532 11.20519984666357 -10 -11 0
695 1 1.7532862244897292 11.067652522223973 10.595926345094176 -9 -11 0
782 2 0.4737638588516891 11.963154297611693 11.11715522050617 -9 -10 0
6 2 0.5583579516098697 8.359569721233873 13.409428843646994 -10 -11 0
7 1 1.766835096392685 9.286155029230134 12.826951785901977 -10 -11 0
168 2 1.7956350790374132 10.758421717081175 13.481027333021295 -9 -11 0
256 2 3.2150069011721434 8.641030459873631 13.110296883108433 -9 -10 0
113 2 9.987518108735824 9.330685443541258 11.478726357463081 -10 -10 0
149 1 10.666026820453245 8.013297458934774 12.221799145506575 -10 -10 0
150 2 11.376167933411468 8.301394862124784 13.657197937159793 -10 -10 0
239 2 12.778846117329756 10.433720416918877 13.437736926867682 -10 -10 0
155 1 13.567277052506865 11.834157271185344 13.319051089653405 -10 -11 0
44 2 15.038934861479428 11.640215343667908 14.032297458777332 -10 -11 0
164 2 16.0706770031655 11.00668583627662 11.326087352105603 -10 -11 0
156 1 18.966573646488023 11.537372991621881 10.728379690009103 -10 -11 0
31 1 17.021731538684264 9.720419101077038 11.669823989622575 -10 -11 0
25 2 16.4354330275181 8.83395772082036 12.895851168819247 -10 -11 0
102 2 18.51305925033565 10.404493047932275 11.840166606095517 -10 -10 0
697 2 2.973057692186378 12.034840687736699 11.121963521476749 -9 -11 0
250 2 2.1769429098157533 13.45481267522079 13.479675499441749 -9 -10 0
74 1 3.3559613577870007 14.503460842506037 13.088596989939722 -9 -11 0
172 2 3.784440294696221 14.430722540789823 11.487316998479853 -10 -11 0
693 2 2.7016893278050946 16.00434719752576 13.332478632073602 -9 -11 0
33 2 6.8213732401510905 15.586934210986445 12.68812404942589 -9 -11 0
9 2 11.109064183554178 15.548389731093524 11.392514460623616 -10 -11 0
159 2 13.555596318200243 12.122232266072539 11.727086836671942 -10 -11 0
124 2 12.772960100771895 15.518020196137627 13.63262119447427 -10 -10 0
14 2 17.920519083158403 12.786759230763781 10.67392542854116 -10 -11 0
683 1 16.37872338722265 12.644358220678924 11.22624874187745 -10 -11 0
189 1 16.32515251710647 12.648491596012947 14.146002245749429 -10 -11 0
287 2 16.356611833295553 13.400729405811926 12.68551168652815 -10 -11 0
689 2 19.820054433125158 15.26676583118499 11.727791165958074 -10 -11 0
64 2 1.9967228328215392 16.79455581979761 10.894647443807717 -9 -11 0
204 2 2.5710841063680823 18.619084760727148 12.896033284524941 -9 -11 0
783 1 1.8922080735316058 17.204226296814973 12.625279082564564 -9 -10 0
157 2 0.3130754384686426 17.379383241427625 12.913007338269992 -9 -11 0
36 2 6.472463019331639 19.90970057763078 10.63768028251483 -10 -11 0
32 2 4.481443154076656 17.96812412387584 10.760662669604983 -9 -11 0
72 1 5.403372850247051 19.078968258843055 11.563921612342266 -9 -11 0
199 2 6.076113989573484 18.249357069588555 12.78637785629925 -9 -11 0
59 1 6.9300974132508895 17.05755123337373 13.505495482290911 -9 -11 0
79 2 9.784690698011454 19.60733184301509 12.837602072689641 -10 -11 0
186 2 8.879651254925339 17.541058152267272 11.40993885456122 -10 -11 0
202 2 8.432803637231787 17.544503444593122 13.898248519797457 -9 -11 0
55 1 9.577130330074827 17.99951469506934 12.812880657992364 -10 -11 0
13 2 11.021830192631644 17.374722563079523 13.197786911609521 -10 -11 0
145 1 12.055971892109188 16.353734280507638 12.427706663404273 -10 -11 0
97 1 14.025034565136217 18.392157502196067 10.93553205179451 -10 -11 0
93 2 15.520244555847375 17.91156835123757 10.480834926325175 -10 -11 0
263 2 14.174735978310311 19.618321316265057 12.015901483579562 -10 -11 0
101 1 15.166893102027375 19.551363616608022 13.29270561621681 -10 -11 0
184 2 13.2389955525942 17.164181626179104 11.639809779857677 -10 -11 0
1 2 15.963787891461811 18.108733425729046 13.203827913627512 -13 -14 0
62 2 17.65917084202212 19.525054024462484 11.113900571862887 -10 -11 0
207 2 18.720670481217972 19.560703112462075 13.658526594074338 -11 -11 0
190 2 17.93203106634667 16.976596955513653 11.433091133403474 -10 -11 0
163 1 18.98351338041206 16.474313802416702 12.531406600397474 -10 -11 0
27 2 18.075533448800613 16.354976443081206 13.868452674361567 -10 -11 0
180 2 1.5921255668695489 3.024374396764879 15.181984890307106 -10 -10 0
385 1 0.2733225931817891 3.5954362338998296 15.906742585772044 -9 -10 0
225 2 6.783234123825434 2.4815444637931017 14.951469172971574 -9 -10 0
258 2 4.150132150118026 2.986068766194609 14.653528840569221 -9 -10 0
260 1 7.72755644982098 1.265748399482864 14.369337080865957 -9 -10 0
354 1 5.661450744618936 3.6127367359172147 14.542524816280968 -9 -10 0
170 2 7.227015115818492 0.6075097491410554 17.714263235203852 -9 -10 0
206 2 9.32238973406548 1.7080384101016912 14.318478151414105 -10 -10 0
91 2 11.963585946488841 3.932445649794323 14.539263072427186 -10 -10 0
193 1 13.056114834973194 0.7121581007369304 15.076253737837735 -10 -10 0
183 2 13.803610320907534 2.165575125520473 15.096761199093322 -10 -10 0
122 1 13.603462791235955 3.7160406283330354 14.628397021250251 -10 -10 0
313 2 12.367322058233565 0.21761287342011357 16.48357570568461 -10 -10 0
210 2 18.884407706947574 3.5631730794286476 14.962790673278285 -11 -10 0
476 2 19.574984604079923 2.533853079653559 16.995337057147573 -10 -10 0
352 2 17.745657985024717 1.0678290373525836 15.511824488418089 -10 -10 0
349 1 18.17070488983981 2.5201525241685814 16.065185992288065 -10 -10 0
214 2 16.87150036655635 3.150296733682122 16.824398016130804 -10 -10 0
167 2 0.631192453477732 5.025010153175467 16.54750932125065 -9 -11 0
134 1 0.598658414979538 6.5336763638472135 17.146330735500598 -9 -10 0
386 2 2.036095406342372 6.8210473298480405 17.879428798897518 -9 -10 0
330 1 6.2942172661852345 6.546367390047806 15.010240469303382 -10 -10 0
757 2 5.096747729930414 7.357931658328312 14.283232508505042 -9 -10 0
222 2 5.83970241088034 5.0021577472160885 15.430890665138023 -9 -10 0
368 2 6.767565016969925 7.523155720716584 16.228905321970146 -10 -10 0
234 2 9.747072026284403 5.317991764174462 14.561883387201188 -10 -10 0
41 2 10.279815810540507 3.982584848356654 16.773756972886932 -10 -10 0
331 1 10.93147784320285 4.78668931662218 15.49980106811574 -10 -10 0
205 2 11.830317709985906 5.992205079841223 16.17188779644473 -10 -10 0
244 2 15.548698263026868 7.270050677099586 14.813871428250744 -10 -10 0
241 2 14.11169952754188 4.645238755006222 15.879169461289495 -10 -10 0
238 1 13.26361079016533 5.626078402313271 16.88538878920712 -10 -10 0
247 2 14.149720409360839 6.9631799473605716 17.100256769930542 -10 -10 0
246 2 0.21545926264732196 7.533598546285897 15.925613613312631 -9 -10 0
285 2 0.282766453039895 12.22854422950492 14.938539962727646 -9 -11 0
11 1 1.7917243757261248 12.112963838547262 14.34327088826676 -10 -11 0
357 2 2.999529014471991 11.995176339843816 15.42522970873352 -9 -11 0
310 1 3.29619101041267 12.005630683674468 17.005087696625164 -9 -11 0
366 1 7.681503238998414 8.721328552526732 16.869952309607626 -10 -10 0
264 2 4.672427799528258 11.211520934228957 17.346188640247963 -10 -11 0
146 2 8.618908523439105 9.499515167197426 15.775915957894568 -10 -11 0
153 2 11.176050741637171 10.194623446969572 15.529677050269374 -10 -11 0
35 1 9.753218664445816 10.630071332102558 16.160037230690435 -9 -11 0
110 2 9.918665816096196 10.717746432270168 17.789092610425758 -9 -10 0
235 1 12.19809449662214 9.41217839223231 14.534660363060093 -10 -10 0
347 2 13.44360761289449 8.812402210934827 15.398535580742823 -10 -10 0
215 1 14.739789310829984 8.030159359892025 16.002513765920405 -10 -10 0
345 2 15.84590395411076 8.917392264686871 16.815316637802212 -10 -10 0
255 1 19.478801498627153 8.247202045616273 14.645731227865921 -10 -10 0
291 2 19.10193231749377 9.7614646191033 15.117586268635321 -10 -11 0