ITEM: TIME
0
ITEM: TIMESTEP
0
ITEM: NUMBER OF ATOMS
3
ITEM: BOX BOUNDS xy xz yz ff ff ff
0.0000000000000000e+00 1.5000000000000000e+01 0.0000000000000000e+00
0.0000000000000000e+00 1.5000000000000000e+01 0.0000000000000000e+00
0.0000000000000000e+00 1.5000000000000000e+01 0.0000000000000000e+00
ITEM: ATOMS id element xu yu zu vx vy vz fx fy fz
1 C 7.500000000000000 7.500000000000000 7.500000000000000 0.000 0.000 0.000 0.378 -0.734 1.129
2 F 7.500000000000000 7.500000000000000 8.897563608336000 0.000 0.000 0.000 -0.338 0.656 -1.940
3 F 6.937052506437000 8.592209116545000 7.094049410813998 0.000 0.000 0.000 -0.040 0.078 0.811
ITEM: TIME
0.001
ITEM: TIMESTEP
1
ITEM: NUMBER OF ATOMS
3
ITEM: BOX BOUNDS xy xz yz ff ff ff
0.0000000000000000e+00 1.5000000000000000e+01 0.0000000000000000e+00
0.0000000000000000e+00 1.5000000000000000e+01 0.0000000000000000e+00
0.0000000000000000e+00 1.5000000000000000e+01 0.0000000000000000e+00
ITEM: ATOMS id element xu yu zu vx vy vz fx fy fz
1 C 7.507541203929040 7.485368843778486 7.522522730089601 0.000 0.000 0.000 0.147 -0.285 0.256
2 F 7.493256940545520 7.513082627781460 8.858876236058927 0.000 0.000 0.000 -0.190 0.369 -0.751
3 F 6.936254361368063 8.593757644985054 7.110214053001470 0.000 0.000 0.000 0.043 -0.084 0.495
ITEM: TIME
0.002
ITEM: TIMESTEP
2
ITEM: NUMBER OF ATOMS
3
ITEM: BOX BOUNDS xy xz yz ff ff ff
0.0000000000000000e+00 1.5000000000000000e+01 0.0000000000000000e+00
0.0000000000000000e+00 1.5000000000000000e+01 0.0000000000000000e+00
0.0000000000000000e+00 1.5000000000000000e+01 0.0000000000000000e+00
ITEM: ATOMS id element xu yu zu vx vy vz fx fy fz
1 C 7.510148611331369 7.480310059482351 7.527055965872567 0.000 0.000 0.000 0.117 -0.227 -0.100
2 F 7.489880127880421 7.519634188284598 8.845555591610228 0.000 0.000 0.000 -0.113 0.220 -0.164
3 F 6.937023766366494 8.592264869306732 7.119001461667202 0.000 0.000 0.000 -0.004 0.008 0.264
ITEM: TIME
0.003
ITEM: TIMESTEP
3
ITEM: NUMBER OF ATOMS
3
ITEM: BOX BOUNDS xy xz yz ff ff ff
0.0000000000000000e+00 1.5000000000000000e+01 0.0000000000000000e+00
0.0000000000000000e+00 1.5000000000000000e+01 0.0000000000000000e+00
0.0000000000000000e+00 1.5000000000000000e+01 0.0000000000000000e+00
ITEM: ATOMS id element xu yu zu vx vy vz fx fy fz
1 C 7.514052728872046 7.472735445704418 7.523724399653793 0.000 0.000 0.000 -0.027 0.052 -0.019
2 F 7.486105936573401 7.526956723574574 8.840104207550537 0.000 0.000 0.000 -0.015 0.028 -0.044
3 F 6.936893841125238 8.592516949283292 7.127784411945667 0.000 0.000 0.000 0.042 -0.081 0.064
ITEM: TIME
0.004
ITEM: TIMESTEP
4
ITEM: NUMBER OF ATOMS
3
ITEM: BOX BOUNDS xy xz yz ff ff ff
0.0000000000000000e+00 1.5000000000000000e+01 0.0000000000000000e+00
0.0000000000000000e+00 1.5000000000000000e+01 0.0000000000000000e+00
0.0000000000000000e+00 1.5000000000000000e+01 0.0000000000000000e+00
ITEM: ATOMS id element xu yu zu vx vy vz fx fy fz
1 C 7.513809903493826 7.473206555244173 7.523541587112187 0.000 0.000 0.000 -0.006 0.012 -0.023
2 F 7.485967542507715 7.527225232493643 8.839689783097294 0.000 0.000 0.000 -0.012 0.022 -0.016
3 F 6.937275060433561 8.591777330279127 7.128381648940516 0.000 0.000 0.000 0.018 -0.035 0.039
ITEM: TIME
0.005
ITEM: TIMESTEP
5
ITEM: NUMBER OF ATOMS
3
ITEM: BOX BOUNDS xy xz yz ff ff ff
0.0000000000000000e+00 1.5000000000000000e+01 0.0000000000000000e+00
0.0000000000000000e+00 1.5000000000000000e+01 0.0000000000000000e+00
0.0000000000000000e+00 1.5000000000000000e+01 0.0000000000000000e+00
ITEM: ATOMS id element xu yu zu vx vy vz fx fy fz
1 C 7.513705087266145 7.473409924786714 7.523161862651374 0.000 0.000 0.000 0.006 -0.012 -0.013
2 F 7.485776027234403 7.527596794390353 8.839415982004674 0.000 0.000 0.000 -0.007 0.013 -0.003
3 F 6.937571391687203 8.591202397850473 7.129035174493947 0.000 0.000 0.000 0.001 -0.001 0.016
ITEM: TIME
0.006
ITEM: TIMESTEP
6
ITEM: NUMBER OF ATOMS
3
ITEM: BOX BOUNDS xy xz yz ff ff ff
0.0000000000000000e+00 1.5000000000000000e+01 0.0000000000000000e+00
0.0000000000000000e+00 1.5000000000000000e+01 0.0000000000000000e+00
0.0000000000000000e+00 1.5000000000000000e+01 0.0000000000000000e+00
ITEM: ATOMS id element xu yu zu vx vy vz fx fy fz
1 C 7.513900654858752 7.473030424321260 7.522728104672921 0.000 0.000 0.000 -0.002 0.003 0.005
2 F 7.485557737684544 7.528020336869329 8.839331394551531 0.000 0.000 0.000 -0.001 0.001 -0.009
3 F 6.937594112682272 8.591158354874768 7.129553519925544 0.000 0.000 0.000 0.002 -0.005 0.004
ITEM: TIME
0.007
ITEM: TIMESTEP
7
ITEM: NUMBER OF ATOMS
3
ITEM: BOX BOUNDS xy xz yz ff ff ff
0.0000000000000000e+00 1.5000000000000000e+01 0.0000000000000000e+00
0.0000000000000000e+00 1.5000000000000000e+01 0.0000000000000000e+00
0.0000000000000000e+00 1.5000000000000000e+01 0.0000000000000000e+00
ITEM: ATOMS id element xu yu zu vx vy vz fx fy fz
1 C 7.513895246693639 7.473040911815840 7.522767675598889 0.000 0.000 0.000 0.000 -0.000 0.001
2 F 7.485525538611360 7.528082810537595 8.839185431622425 0.000 0.000 0.000 -0.000 0.000 -0.001
3 F 6.937631720492778 8.591085393175845 7.129659911928681 0.000 0.000 0.000 -0.000 0.000 -0.000
