LAMMPS data file via write_data, version 2 Aug 2023, timestep = 87000, units = metal

1146 atoms
5 atom types

0 20 xlo xhi
0 20 ylo yhi
0 30 zlo zhi

Masses

1 28.0855
2 14.0067
3 12.011
4 1.00784
5 18.998

Atoms # atomic

1 2 0.21977421813868 2.4267770662642 4.18818181709841 0 0 0
762 1 3.9616244358550063 1.2896256629744174 2.4881797630039664 1 1 0
1016 2 2.560998485111689 1.799169049519924 1.6617177018765532 0 0 1
496 2 3.4618456665515716 4.6757500105224095 6.840433592037811 0 0 0
681 2 1.5572179385292575 2.799242755787571 6.632638755353785 0 1 0
615 2 2.585122103918418 2.5523085994699883 4.263372479363471 1 1 0
54 1 1.5226222069363509 2.7255198480353426 2.7057279929787117 1 0 0
701 1 1.2902274480109484 3.5211686286515764 5.076400028415279 1 0 0
611 1 3.0546048569902617 1.9703597142704476 5.818585924124748 1 1 0
1119 2 0.15681612124927485 1.9385121714088864 1.5814333767897617 0 1 1
492 2 1.5269986614060307 4.377634748060274 2.0929629020488325 0 0 0
629 1 1.3313569323169199 0.6059375941365321 1.1986176990500566 0 1 0
660 2 4.4474515412595315 2.2772468729397852 6.805652048922753 0 0 0
204 1 2.8866886209714537 4.923540571965641 1.009189183565649 0 0 0
1050 2 3.2667558507535412 0.14044242945921143 5.88635976464155 0 1 0
780 2 4.993117641036873 2.5515714917210612 3.165500724782852 0 1 0
440 1 5.01052916985541 3.87973224813092 6.687224665708668 1 1 0
499 1 7.912453552846445 0.33294617953397937 5.660793729148661 0 0 0
484 1 6.205487551916695 2.194794771678236 4.299571334305078 1 1 0
486 2 5.889669254639082 3.0326310572250343 0.7025455374085859 1 1 0
820 1 9.02522753326738 2.4754290391221576 3.6335223758650432 0 0 1
197 2 8.601546260489997 4.32582274470217 0.520473586163475 1 0 0
362 1 7.6768479898493345 4.4745321414685195 5.3825526630439775 0 0 0
380 2 6.2410023705463065 3.5559384803538356 5.351285673668778 0 0 0
686 1 9.591286615747965 0.7788856029588649 1.3051659878317698 0 0 0
110 2 7.444300807243093 2.0530921886080904 3.0408119714043327 1 1 0
252 2 8.378138323113113 4.166743659841244 6.974195412424008 0 1 0
280 1 5.470519343097696 3.993475362312591 2.2326840811470663 1 0 0
46 2 6.259655915455925 0.769183860223062 5.304477518027416 0 0 0
308 1 6.695259785540319 1.5548230008514632 1.529935787252082 0 1 0
1144 2 5.419619566615493 0.5246977758381295 1.8160589070439945 1 1 1
267 2 9.073254498477779 1.5270345410208024 5.108381579078955 0 1 0
418 2 8.838584341943967 4.158800556487522 4.110139151117202 1 1 0
538 2 8.00676990948852 1.0958327570709196 0.5605690291576241 0 0 0
14 2 3.0940981333427695 0.09583507534830105 3.3448173549004387 1 0 0
926 2 7.869522579002455 0.3266785651164894 7.433462070264715 0 1 0
283 1 4.069403770402086 1.8164281276977015 8.37543340305891 1 1 0
444 2 3.1182618319420907 3.119371319825166 9.01791537817789 1 1 0
963 1 3.2375313573747784 3.2357789465941442 10.739537350007588 1 1 0
153 2 3.8130031180359722 1.8938174529862952 11.765926654934729 1 1 -1
1138 1 2.7636197365985216 1.5275267648532878 12.963273176210313 0 1 0
924 2 1.5327545292324913 3.4751672650631202 11.248476103946347 0 1 0
610 1 2.1209570565713585 3.922761843676585 7.854598898955037 1 1 0
323 2 3.285379686228196 4.414914719914729 13.188108859222023 1 1 0
135 2 1.0007168339152244 1.5091160586999122 12.930631111935137 0 1 -1
370 2 0.34117182771124666 1.9941503524250415 9.343680758809999 1 0 0
1086 2 2.405240694752132 2.229656556313649 14.644435405739234 0 1 0
284 2 3.097504563019711 0.49982571092654854 8.749058227607373 1 1 0
822 1 1.4591582792067546 0.5507694803523073 9.30681278913231 0 0 0
852 1 0.5052751464386744 2.037644477205465 14.559159690752802 1 0 0
388 2 4.702400393561424 4.196354619309405 10.837109795912612 1 1 0
301 1 1.8888509616662827 4.9371371683836385 12.207749741185332 0 0 -1
591 1 9.784451046700086 3.470962612417234 7.702451330846284 0 1 0
160 1 0.44583371545303724 0.10562157794650287 12.072979376209688 1 1 0
420 1 4.90580683179601 4.754343742707078 12.46335492258933 1 0 0
870 1 9.77891589113843 2.3062318109502553 14.563199274926422 0 1 0
558 1 6.55578119069883 0.36851527922026706 8.578076633725663 0 1 0
554 1 5.518155093044923 1.2865065883836293 11.93626317042005 0 0 0
964 1 6.727987411917257 2.661459042611035 14.21101058558496 0 1 0
250 2 9.141919693449237 3.5815696828541275 11.569900889512967 0 1 0
935 1 8.203305614717058 2.2463074981149376 11.966851754833465 0 1 0
972 1 9.079871019977439 3.6876308733894367 9.938616962115029 0 1 0
845 2 8.88557788528185 0.7696826864313502 11.3484903231921 1 0 0
648 2 5.627407793975507 1.6697365653910428 9.15886348535031 1 1 0
881 2 9.430767750706714 2.297974194856217 9.053365131001128 0 0 0
55 2 5.999153914849605 1.1382823072015176 13.52438387992902 0 1 -1
841 2 8.296541060618246 2.2665345882849977 13.715813105065383 0 1 0
199 1 6.01713011050053 3.414532856154905 9.877112442074601 1 0 -1
930 2 5.798764979044636 4.279903527957424 8.072918122474212 0 1 0
804 2 7.5218093636505 4.240343856959579 9.65093377211159 0 1 0
1012 2 6.623928056773723 2.498148850601351 11.314983268324516 1 0 0
740 2 5.961866573816367 4.176142019938006 13.792797297807018 1 1 0
651 1 7.358821027589779 4.959745890265475 8.118210587500672 1 1 0
1088 1 2.3908465176732223 3.4185347253058436 18.031364056334315 0 1 0
275 2 3.363571086198729 2.924379702734786 16.70148988599674 0 1 -1
1054 2 1.4533203536303558 1.4164217176519294 21.08162187205735 0 0 0
662 2 3.1702632096100087 2.5079120847256546 19.284317787138058 0 0 0
38 1 0.6201435352896381 0.7919454261924723 17.233749335355043 0 1 -1
779 1 3.0477182549892063 2.3047947956634305 20.995154787930968 1 1 0
952 2 0.8293879360160994 2.5586686948385746 17.577526919370314 1 1 0
1097 1 3.1392695002036355 1.4211189634095305 16.027326517325896 0 1 0
960 2 4.418643926577403 0.43546677059920974 15.488559462280142 1 1 0
934 2 3.1118794932126908 3.6211393484370724 22.28127351430911 0 1 0
953 1 3.215200145844428 3.8645243844310655 15.112366277187622 0 1 0
141 2 4.767352997521904 1.4395973556911708 20.814497810711757 0 1 -1
235 1 4.802596235008452 1.9567643644446446 19.000350887751292 0 0 -1
1142 2 2.2104586513486226 0.23452929535856654 16.925892452286387 1 1 0
237 1 4.994320756117224 0.043546837916612825 22.042187210238904 0 1 -1
1044 2 1.9317676882469128 4.95255439419038 15.485204932628973 0 1 0
1130 1 8.62163769727259 4.79950046995266 19.258274872747684 0 1 0
1103 2 6.6463276361888 0.19004040540323394 22.1228298360252 1 1 0
478 2 6.47243865902172 2.4940624795523583 15.976667371690104 1 1 0
21 1 6.883933591820946 3.445569815982449 17.27740989364181 0 0 -1
1074 1 5.891516809796908 0.8821246609521332 16.317553831237817 0 1 0
727 1 6.614274328594894 1.897521630559757 21.52096850625619 0 1 0
941 2 7.727511247194844 1.1446063912457038 20.306732498137574 1 1 0
1027 2 9.814386906140168 3.7115333617329074 15.588898085748022 0 0 0
119 2 9.087728041544894 0.23338228548439596 18.12723880204486 0 1 -1
1122 2 8.393150254652374 3.130776320366465 18.249313443269024 0 1 0
65 1 8.861628365802497 1.6129730938643716 19.148458255673837 0 1 -1
1076 1 6.080358022182457 4.540340051348065 19.864265245457567 1 0 0
127 2 6.934978122643611 3.6568421613594455 21.076440072207166 1 1 -1
846 2 5.781802257793099 3.326314593709426 18.626126191914786 1 0 0
1064 2 5.443752382611693 0.5875283118469116 17.93776126933107 0 1 0
932 1 8.179631845599559 4.4153288630107355 22.065270482131037 0 1 0
959 2 7.109019055197717 4.964546499620127 16.523870682630015 0 2 0
245 2 4.40947023911014 4.968328615632512 20.179021669958914 0 0 -1
583 1 3.2264374064885755 1.7309154140696128 26.249603870005195 1 1 -1
981 2 1.9995372840804364 0.8548920385170352 25.363546320911173 1 1 0
147 2 2.572582841830097 1.8752982828934053 27.859072455164448 1 1 -1
296 2 3.8564973798479003 2.8957269171077926 25.117487256526953 1 1 -1
349 1 2.5325660729323602 3.628386444358461 23.917126571424674 1 0 -1
170 2 0.8222218556189461 3.0002080101850304 24.009461499498546 1 1 -1
106 1 2.1275712996642993 3.3907388116381036 28.56439106647042 0 0 -1
96 2 1.6679934533175464 4.159810370710278 26.989768673678068 1 0 -1
374 1 0.42862894755308384 1.503586856589867 25.000153059342967 0 0 -1
174 2 0.4249191829343452 3.335882496493888 28.96447539229012 0 0 -1
79 2 3.2961799018445537 3.7625624012396646 29.755953565401544 0 0 -1
401 1 2.6992882886687886 0.28633684224896 28.59720283242829 1 1 -1
140 2 4.176383097966988 0.8781748477983138 23.3470745665166 0 1 -1
913 2 4.283248378326774 0.4580097478409761 26.55403529736615 1 1 0
714 2 4.083888881752818 0.6395770563238121 29.625455253545265 0 1 -1
179 1 4.421385287933576 2.424050766090027 29.356634438334357 0 0 -1
909 2 1.2832056852458575 0.2241026250797549 29.564512485534244 1 1 0
45 1 2.9003075187695564 0.0091707504031232 24.131843608905545 0 0 -1
304 2 7.90761292016822 2.886129761607776 28.369291694311144 0 1 -1
382 1 9.838561971424571 4.152036072204295 29.007679133526832 0 0 -1
1104 2 9.099562661305926 4.785033333684346 27.481654681772092 0 1 0
705 2 5.256179614118806 2.664060462204845 27.921559132993455 1 0 -1
23 2 9.10190995207744 0.79614013383583 23.833821673031473 0 0 -1
173 2 9.499507441426056 3.4121083432997428 22.713950537483008 -1 0 -1
157 1 7.108513882919733 3.90543033293558 29.61641650927095 1 1 -1
589 2 9.222714380955628 0.5114230480847848 27.745247462111216 0 1 -1
107 1 7.968503959033385 1.2315055823379044 28.74199433711516 0 1 -1
322 2 6.435593073471667 1.3696746683611327 25.35675305176081 1 1 -1
185 2 6.69864330257014 0.30659869293187514 27.96180153260309 0 0 -1
105 1 7.77952753173781 1.8848174262584068 24.34058701527652 0 1 -1
249 2 6.571745855956085 2.610898688178227 23.22680647908248 0 1 -1
28 2 8.81140343185338 2.9183258542563704 25.38061142662381 0 0 -1
454 1 5.806385520450347 1.1845410745595226 26.878388429112068 1 1 -1
88 2 6.55704759664026 4.160391533635005 25.95790257729669 1 0 -1
739 1 5.173020192144435 2.006869724240667 24.197958537959693 1 1 0
1143 1 5.4753832602844925 4.277037168448675 27.327072993395888 1 1 0
1018 1 8.060235435439727 3.6868748102056617 26.76389419336761 0 0 0
580 2 2.405376890986368 7.059485972726837 3.4581346305113008 1 0 0
207 1 1.3232592131259475 5.630314443872842 3.3006694084685466 0 0 0
957 1 2.969053318216981 5.983147296146637 5.893796095726495 0 1 0
241 1 2.0524761882979767 8.790026854425319 3.55863504200594 0 0 0
229 1 3.617067369211758 7.974152101658551 1.1511699903844692 1 0 0
956 2 2.592664840098159 7.4082497139128005 6.835518496401652 0 1 0
602 2 2.1354018491479185 8.999215423505353 1.8712686009802528 0 1 0
387 1 0.34579921101797534 8.727431861975175 1.8154417740310638 1 0 0
154 2 0.31592560176893825 9.046959576982054 3.5092916801021494 1 1 0
495 1 4.005097717219944 6.437197599451687 3.323884735168842 0 0 0
679 2 4.406353661974465 6.050247242840051 4.89478768890358 0 0 0
802 2 4.237142015650936 9.668902584734921 7.1719183537762605 1 1 0
529 2 4.787584184518958 7.552269117219582 2.3188059270652617 0 0 0
364 2 2.708527904496605 6.575821033299493 0.5130717147184887 0 0 0
565 2 9.982099257032115 6.655250481056964 5.629445762848598 0 0 0
122 1 4.469140061304332 9.896484140915243 5.477285898899956 1 0 0
672 2 0.22417363214481975 7.151189130790774 1.1448297296072294 1 0 0
570 2 0.029982435955175173 7.132867828378605 6.470170297860279 1 0 0
493 2 1.6149442280566702 5.135229446602439 4.904717566546693 0 0 0
1029 2 4.146865074264638 5.022256219258497 2.2093886244769396 1 0 1
43 2 3.9342106357279483 9.24677907837952 0.14223551807555793 0 0 0
395 2 0.9751461511609366 9.957693361364058 7.068889798010313 0 0 0
1114 1 7.841960526828948 9.861485100147567 7.351217171430446 1 0 0
356 2 7.277908559530249 6.195096625509985 5.4628808619535585 1 0 0
504 1 6.478993657901414 7.090302796168266 2.022839317309442 0 0 0
695 1 7.18423975854583 8.916842113201334 4.386614536261829 0 0 0
555 2 7.987502345819777 8.741417662762581 6.002779279279682 0 0 0
764 2 5.575906315966027 8.595781674355969 4.95257791011734 1 1 0
193 2 7.585399951938672 7.913243371010572 3.082459400815326 1 0 0
793 1 9.281810086110099 7.759515953922341 2.533649203851343 0 1 0
422 2 6.887873912337803 7.652559137982799 0.4929781205672091 1 0 0
345 2 9.584149906273291 8.106018354148317 0.9290688113532481 1 0 0
439 2 9.711082434830999 6.099238683240466 2.7624802067948617 0 0 0
668 1 8.45812962547098 7.112652109832492 6.339748655642968 0 0 0
620 1 5.754105729231161 6.98883750133228 5.656269035429225 1 1 0
461 2 5.460092080776453 7.1811032322122506 7.249617424808072 0 1 0
112 2 6.799615370488309 5.353131909388867 2.371978442096192 0 1 0
385 1 8.51539482430391 5.012032166591379 2.080287735202989 1 0 0
732 1 1.184298596414898 8.240579789705249 7.329292679519186 1 0 0
550 1 3.784007219363778 7.016938786861479 10.816915402316505 1 0 0
568 1 3.5367862961744176 8.517976357624436 13.087969491070403 1 1 0
509 2 2.3536584300820933 5.936543788333909 10.773447049724814 0 0 0
202 2 3.086385457364746 8.545682096887079 11.363144801605353 0 0 -1
524 2 2.8434112340186 7.083921721659252 13.83659081027825 0 0 0
891 2 2.2579195670723933 9.513533535773243 13.687250975194841 0 0 0
675 1 0.9983705157830493 6.25536741852861 9.691945736882838 1 0 0
354 2 1.104554626558217 7.993647696656516 9.111526565244581 1 0 0
597 1 1.550446428989466 9.118705390078468 10.598189842330633 1 0 0
1051 2 4.40191450330939 7.620181201992334 9.31202536853003 0 0 0
683 1 1.686532329218505 8.190814760405928 14.567296167860276 0 0 0
480 1 3.987605070949359 7.9623225246151685 7.6886852914250845 1 1 0
801 2 0.14483338719460362 9.632796668827428 11.574288098728353 1 1 0
567 2 0.3864722904730576 5.5155135270241535 13.154749496359498 0 1 0
990 1 0.36259157246959745 5.073849403853126 14.942316360682083 0 0 0
447 2 0.9213312555560922 5.117512223904228 8.245487998924936 1 1 0
1040 2 0.04238270675392286 8.050560263539735 14.144793699574583 1 0 0
44 2 4.918698038526092 9.257782282242735 13.973691422008143 0 0 -1
886 1 9.744140158595394 6.778869174962218 12.451552834306192 1 0 0
983 2 9.805404798199747 6.5426973800803445 10.73204772236868 1 1 0
1079 2 5.077639926577396 6.553928472518986 12.056994306469534 1 0 0
861 1 6.617630138235473 7.30065164590498 11.731153720489019 0 0 0
312 1 8.615204451900059 7.134424098126486 9.658167299194742 0 1 0
522 2 8.751756912901513 8.905308581083782 9.790130907487542 0 0 0
653 2 7.974657031621221 6.889545000409463 12.730318656117825 0 0 0
903 1 6.475480264736266 9.830561089240424 13.286192105943918 0 0 0
787 2 6.94170604226624 6.970798375439586 10.1447692662192 0 1 0
566 1 9.59507311323408 9.37011421188401 14.290864246791887 0 0 0
551 2 8.128985302246651 6.684610182209558 8.014783770588759 1 1 0
587 1 6.140180208141709 7.680729658712194 8.807281655911636 1 1 0
572 1 7.278242136964082 9.811091330703675 10.294609041537374 1 0 0
4 2 6.613671485927917 9.382304381033189 8.623001153327955 0 0 0
656 1 7.831097613447651 7.343300180709304 14.314047541644658 0 0 0
1145 2 7.873780018989011 9.107088054548049 14.274807807003938 0 1 0
757 2 6.457664173673575 9.140655572453351 11.6748353500454 1 0 0
246 2 3.686388439193145 7.457985163892615 18.800036511962787 1 0 -1
806 1 3.2022642641348025 6.012004182497893 19.514600135797245 1 1 0
1065 2 1.4810512436058938 8.739894178895176 20.814079384991977 1 0 0
39 1 3.1718203214189673 8.410595891565347 17.46101895516795 0 0 -1
67 2 2.6615759906026835 6.271032425740197 21.25951825357532 1 0 -1
232 1 2.346559374964526 7.825574046999965 21.9453046499823 1 0 -1
797 2 2.263665148720856 7.687022775970481 16.183671180199788 0 1 0
996 1 0.670356229455531 5.828942886028803 17.902895482208553 1 0 0
37 2 0.7041230772323959 7.37308664223704 18.5333767052415 0 0 -1
863 1 0.38962753898542585 8.896791948075776 17.86716395984419 0 0 0
383 1 0.07933327279757467 7.989438083466927 20.07024273218722 1 0 -1
754 2 4.586426057104397 9.142261536033688 16.919291253808538 0 0 0
751 1 2.9828443476977022 6.252655862864241 15.351517033009426 0 1 0
1039 1 4.71886423244648 8.427346919825837 19.63839967611494 1 0 0
1077 2 4.370655710316562 5.179415584787545 15.61295874750064 1 0 0
165 1 3.850895342475477 5.107376143088647 21.814303789117034 1 1 -1
1041 2 2.222570619666872 5.135786876720777 18.38734093911458 1 0 0
831 2 1.9990134566678752 9.774906551939427 17.973934476781853 0 0 0
1093 2 7.176819628535288 5.7086429496356885 19.06226500248411 0 0 0
893 2 5.412171699277389 7.691022301960169 20.9736485119467 0 0 0
659 1 6.20774598682057 9.85698086562077 17.571056965159595 0 0 0
929 2 8.170807824784896 7.868556375263451 20.67661893829714 0 1 0
16 2 8.42422912759419 7.656104144980606 17.71352026506411 0 1 -1
271 1 9.211637521237503 9.20060063068301 17.43718000888017 0 0 -1
720 2 9.118778399135133 5.265166640102677 20.780216866168605 0 0 0
628 2 6.554579392467016 6.91582499591296 15.298499678935285 0 1 0
166 2 9.019496264662251 6.535919162028513 15.314057997938587 1 1 -1
1090 2 6.189089161562466 8.49522283400252 18.764792117707422 0 1 0
923 1 5.9717903081886625 5.35739747184311 15.168725925331714 0 1 0
472 1 9.590938047755062 6.932467240020251 21.17180978699172 0 0 -1
1028 1 7.527658379348707 7.522122565248288 19.15257436846886 0 0 0
796 1 6.798470955707367 8.675525784551736 21.554758818765574 0 1 0
955 1 7.866063435283908 6.46294786413367 16.566568719611645 0 1 0
1118 2 3.3146703085639864 7.345447277377399 26.187208313121516 0 0 0
126 2 1.1287170647542606 7.771905550444349 23.242489028232434 1 1 -1
1141 1 1.2221556134429783 6.2847553231429485 24.40486524473028 1 1 0
223 1 3.7685055318612872 8.990442125665478 25.943548108423315 1 0 -1
914 1 1.2739327397255984 9.445237456519049 24.19190981017856 1 0 0
445 2 0.999884469769758 6.434207822493694 26.082008856403895 1 0 -1
986 2 1.5768864971106125 8.128306808229214 28.49530304770545 0 0 0
194 2 0.1373519449272222 6.11091779647335 28.682705161356797 1 0 -1
282 1 2.4971267183268613 5.4867531618914045 26.294307315182998 1 1 -1
465 2 3.558713736998202 9.701366302215725 27.468911985224285 1 0 -1
402 1 1.9587412173297765 9.745021068466711 28.04001239783313 0 0 -1
361 2 2.8143399882150515 9.591595174877337 24.74464571635129 0 0 -1
843 1 1.2680606624930517 6.948916187316455 29.68899712053714 1 0 0
1000 2 2.5014420863315334 5.1723430482255965 24.555392871747035 1 0 0
184 2 3.69288210726984 8.610110256841157 22.60107520549685 0 0 -1
408 1 4.72593472120714 6.685218050352906 26.726740238905727 1 0 -1
71 1 4.67166842836519 9.125285323731186 28.679513066935215 0 0 -1
47 1 0.39155368496938736 7.231242405141577 27.428297313359618 0 0 -1
1107 2 4.096399941938799 5.126225993527897 27.126100827886855 1 1 0
854 2 5.03809275492294 5.752338418680241 22.95035901818604 0 0 0
1116 1 4.986886658859514 7.425398869203057 22.60809512595048 0 1 0
156 1 9.105024842811812 8.740941657327326 25.92342107467625 0 0 -1
335 1 6.265879768206698 5.254945081997066 24.32162191763634 0 0 -1
885 2 5.309977875588483 7.5584527124794105 28.174649543643188 1 1 0
1019 2 5.577310284956435 9.110696195626375 25.65219561026752 0 0 0
41 1 6.5557189626029135 6.842941718845539 28.997034946692864 0 0 -1
435 1 8.349235592508386 8.40967113555269 29.748806276217802 0 0 -1
120 2 8.289872723127987 7.55550614134729 25.065965632572052 0 1 -1
920 2 6.1957378606683005 5.089132796182994 28.7331479940249 0 1 0
233 1 9.458414039459926 6.4677136901112044 27.868508005848508 0 0 -1
319 2 8.063741357902737 7.321188182925981 28.424160389392384 0 1 -1
97 2 5.836859657014291 6.577993096654073 25.29262535916118 1 0 -1
265 2 6.52788128431616 8.167945987810418 23.18067569023144 1 0 -1
1020 1 6.659092927307633 7.963954699021771 24.874245710666482 0 0 0
344 1 9.289364086282376 6.374607129998872 24.052142622203696 0 0 -1
1084 2 7.839788663938947 5.435484043274337 23.471548299480574 0 1 0
189 2 8.857148580886793 9.981594879066552 29.259072735253024 0 0 -1
324 2 3.9044309307442937 11.019191222542505 2.2052223937408337 1 0 0
458 2 3.3074556382850435 13.325642805265488 3.9394717996705277 0 1 0
171 2 2.836532979017174 12.339811524445313 6.454882324935377 0 -1 0
737 1 1.8799488110939073 10.90138022876105 5.910265154117388 0 0 0
330 2 1.5408558758063484 11.690245497621671 2.088704386983598 0 0 0
619 1 2.639637192974154 10.574204354473542 1.0057005208831695 1 1 0
187 1 2.815342637578179 11.77728335783576 3.2497421307136145 1 -1 0
968 2 0.6799557668989 14.062957853408333 5.92651514393232 1 1 0
328 2 0.7358165118711636 11.524352904450847 4.71191385299325 0 0 0
316 1 4.128492881636382 12.981272594902684 5.504609608283898 1 0 0
608 1 4.06207307288464 14.582996172600721 2.8640182312284974 0 0 0
543 1 0.03675661591695535 12.50950095941513 1.9842555158825363 1 0 0
226 2 0.27827799447294516 14.00565652219069 3.0149919669872185 1 0 0
459 2 4.953165648442277 11.469868042552534 5.13986381956764 0 1 0
850 1 0.0697746355726021 13.20345081973278 4.582473839091996 1 0 0
116 1 6.942465584285676 13.803409067259953 1.9943430991411322 1 0 0
365 1 7.029619968423677 14.512719284865586 5.851507998193436 0 0 0
247 2 6.55009316375453 11.252180867097534 1.1439778529178615 0 1 0
603 1 9.218847682181314 12.845775388106059 4.2850808762837245 0 0 0
520 1 5.021044777952635 11.965936453149089 1.4091077682360582 0 0 0
977 2 9.29180687218695 10.570085405011122 2.1068655445538376 1 1 0
295 2 9.56027370870441 12.556982744274798 0.2183296336281611 0 0 0
526 2 5.3378826811054 14.017730791803968 6.300616586971254 0 0 0
760 2 7.705225535585697 12.97165287091278 5.212374343381803 0 0 0
1057 2 7.124568477074725 13.990288022754168 0.23600420884752826 1 0 1
360 1 9.770859339763758 10.838958082489619 0.5388397400012516 1 0 0
396 2 9.944310159333691 11.318004899729035 4.953188153323934 0 0 0
680 2 6.696358088530746 11.093826960267396 6.9855779864460565 0 0 0
433 2 8.27135467682425 14.780910199530659 7.119179952969251 0 0 0
405 1 7.735817606290187 11.202465064888504 2.4256407998627907 0 0 0
121 2 5.216095528072762 13.474108717560934 2.194049730447469 1 0 0
691 2 8.075847224608607 12.838693334781976 2.6352548338967887 1 0 0
521 1 6.696772417434376 11.613616249567503 5.267054619790564 0 0 0
429 2 7.2340638852166865 10.561221812309844 3.9548107269757655 0 0 0
300 2 2.812609857990527 10.011429498631307 4.631387222496639 0 0 0
689 1 1.9035592196235465 13.608338587737027 7.424031229502955 1 0 0
1013 1 2.58734609403904 13.614407036034327 13.957509539609662 0 0 0
497 2 1.7653508778639149 12.125449657121282 13.623981027929043 0 0 0
678 2 3.9865693582701427 11.313726601439397 12.330359043491164 0 0 0
733 1 2.969135415438909 10.999962275112606 13.785574439130906 1 0 0
515 1 1.370116244119838 12.088476117464731 9.825274920937984 1 0 0
553 2 2.797005254143396 12.918012400008395 10.394534126281147 1 0 0
950 1 3.6080666002395025 11.494159439836078 10.629514225184993 1 0 0
842 2 2.2454494223190364 10.520131399567934 9.973593128583857 1 0 0
1085 1 0.3015954321575947 12.027242173531434 14.431560662867359 0 0 0
731 2 0.9327535976074013 12.46021965659079 8.243514300546254 1 0 0
211 2 2.2124686874138764 14.785907611029865 12.826118376306205 0 0 0
684 2 4.225008642396452 13.326395048016972 14.084312300873856 0 0 0
859 2 3.467569341529895 14.42566450588652 8.304758392062757 0 0 0
305 1 2.7436195347133947 14.628879083359454 10.024444657292797 0 0 0
742 2 0.15207295421933562 12.488350507917191 11.015119385915506 1 0 0
814 2 9.408250958479082 10.378217425582628 7.833078391221056 1 1 0
98 2 5.028219174963964 11.52729251673763 9.456504733829824 1 0 -1
501 1 5.17038290357434 12.545086649514019 12.883771068026544 0 0 0
898 2 6.569368162788275 11.589548265071784 13.41628064571656 0 0 0
803 1 9.442425274742813 12.087447300018137 13.480513055787403 0 0 0
826 1 6.130324885267754 12.67605214806405 10.100965625761022 0 0 0
864 2 9.8088463237458 10.540401190603742 12.9782662759367 0 0 0
819 1 9.464841724543879 14.714689052094982 12.861962589089725 0 0 0
791 1 8.136460009654288 14.441625811200574 8.737452912139489 0 1 0
562 1 5.174427408632171 14.658635122663915 7.973131207694231 0 0 0
707 2 9.209279949492407 14.552582991722668 14.587064323136401 1 0 0
195 2 7.338731043350353 11.483193686197993 10.483731251161364 1 0 -1
606 1 8.824803779099511 12.305514210741935 10.694919704966786 0 1 0
564 2 8.988450929014013 13.11028211028149 9.137996276719276 0 0 0
709 2 5.768945880647546 13.497915660039943 11.50804339743245 0 0 0
443 2 9.176584082501659 13.152654494181016 12.151585802867737 0 1 0
76 2 6.454763723502703 14.016453052487638 9.011321929953336 0 0 0
786 1 5.422913771024461 10.559744109221846 8.04937224886036 0 1 0
906 1 2.7365550746858003 13.980434821940298 17.023428898084347 0 0 0
925 2 1.9244535968428693 12.667323378853498 17.762611557728793 0 0 0
882 1 0.9827895245688827 12.882422273123206 19.200367696552775 1 0 0
415 2 1.2407968019590248 11.373940868226526 20.18224416703775 1 0 -1
63 1 1.9103624999100441 11.27017375930397 16.794823724471698 1 0 -1
1015 2 1.3990018351903042 14.296405953813297 20.203156786460287 0 0 0
62 1 0.4220251831353151 11.038292999558996 21.760315603963694 1 0 -1
761 2 0.424706672396231 11.331300212763924 16.055038699866348 1 1 0
575 2 4.352034008477414 13.435159418827052 16.997176769119665 1 0 0
254 2 4.474446309212994 11.506125126653478 22.037125126276077 0 0 -1
910 2 1.9251590427733911 14.149016337590279 15.482766286409072 0 0 0
858 2 3.196530380859981 10.95946049356635 15.608555324962632 0 0 0
699 2 4.733639952599761 13.229953119039106 19.860873143253542 1 0 0
810 1 4.647540389071822 10.124926912599598 15.542530403203168 1 1 0
546 1 0.32492020828739043 14.86984612979934 15.065891649939019 1 0 0
24 1 2.280305287961235 10.037012701635245 19.80732946567191 1 0 -1
777 2 8.725951652231856 12.016945685110302 15.008651527596433 1 0 0
532 1 5.008161195734062 14.015919860907994 15.52236608204954 0 0 0
752 2 9.924787819085049 13.459471220116585 17.219317680090402 0 0 0
49 1 9.876619466142145 13.279056922357988 15.502459838050838 0 0 -1
266 1 7.777554786432228 11.280510775101115 22.00200067829228 1 0 -1
866 2 9.508642990884942 10.556551441190948 21.676309698239823 0 0 0
834 2 8.948527979714312 14.830796266380062 19.59840780455658 1 0 0
1052 1 8.522923262601362 14.337975639022964 18.04946222406714 0 0 0
399 1 5.443687263066307 12.989029404607304 18.33238780245601 0 0 0
1126 2 8.876910093933304 12.07287866750139 19.56397491054269 0 1 0
980 2 5.967670021983103 11.297947382355462 18.627969851958365 1 1 0
15 2 6.668286804389447 10.326678260085082 21.186327578621864 0 0 -1
921 2 7.981492001905979 10.30059063201691 17.546467147515028 0 0 0
1042 2 5.0475451493635966 14.373116973096408 22.06364220761823 1 0 0
1061 2 5.971422760799303 11.030187191284018 15.962340713226274 0 0 0
315 2 7.607189582524805 13.006617692185518 21.700666788924348 0 1 -1
256 1 5.177990922222929 11.353741611071209 20.40208005812333 1 0 -1
318 1 7.713505761653791 11.751170556344675 18.39710219326598 1 1 -1
1021 1 8.99847547946101 13.36540862778683 20.689726755034318 0 0 0
936 2 7.177126148120295 13.242412770333496 17.978749419839684 0 0 0
696 2 6.631207782328631 13.713640836325498 15.246707035864926 0 0 0
511 1 7.008792245311819 11.985756662599902 15.048794990770878 0 0 0
1095 1 5.146296363442262 14.9763180892931 20.40734690361451 0 0 0
161 2 3.9875598656130817 10.016388993218925 19.827601353274563 1 1 -1
710 2 0.4534849507911744 12.715839314420718 22.386407461486147 1 0 0
352 2 0.854371453272652 12.39802436171854 25.035918679624583 1 0 -1
1135 2 3.2578539375853133 12.392938457371237 27.148144542404413 0 1 0
8 1 1.5265386684646827 12.235513369083387 26.660497595308538 0 0 -1
130 1 3.636936135530597 12.91353977911995 28.814201870187482 1 0 -1
210 2 0.6827025785091455 13.380565610175786 27.56001383140223 1 0 -1
292 1 1.6735312364079562 12.409556818382292 23.525615205955006 1 0 -1
398 2 3.764435619573598 11.961484953152091 24.385965444200462 0 0 -1
505 2 1.0674893557651937 10.615163990814374 26.954901093132715 1 0 -1
222 1 0.6796349830831615 13.494877924779603 29.27033879363406 1 0 -1
281 1 3.535025116460629 10.4463383740603 23.23671809764796 1 0 -1
215 1 4.418627619441218 12.577140521371383 25.852661728495477 0 0 -1
61 2 1.7046845771147268 10.667304710195644 22.972116612590725 1 0 -1
69 1 4.499774563606422 12.940999054574876 22.986062857501185 1 0 -1
491 2 4.605157865855501 14.307959028808332 28.703800683485703 0 0 -1
287 2 4.4202131246833485 14.438375180978461 25.84673054080273 1 0 -1
68 2 2.3175716708106724 13.43379064159177 29.800998124023298 1 -1 -1
430 2 1.5029184064213679 10.590770214317306 29.568514625480866 0 0 -1
549 2 2.820638025170297 13.650109482851322 22.98092920208783 1 0 -1
277 2 4.725002104104034 11.928994828461747 29.6977165882309 0 0 -1
586 2 5.996905571013942 10.11755206549266 28.318446732599934 1 1 -1
227 1 0.5148176254075976 14.935036093852863 26.538906070907565 1 0 -1
72 1 6.635511064216077 14.138179612254577 22.647447326424622 0 0 -1
293 2 8.992564502633606 14.674012423761 28.19401844591632 1 1 -1
339 1 8.872759616709516 11.008855032626764 27.753416423393297 0 0 -1
434 2 7.623483984903274 12.141201841221545 28.377739999049087 1 0 -1
75 1 6.375952668129288 11.36810358622332 29.38709851490198 0 0 -1
1001 1 9.651676301080489 10.562450610817887 23.490960936998793 0 0 0
42 1 6.340449606249424 10.27114355683274 26.663245938075338 0 0 -1
52 2 6.062592909729304 13.121997938035204 23.827982535549175 0 0 -1
231 2 7.902146725123808 11.034249527591067 23.772300049749315 1 0 -1
785 1 8.363070903653389 13.470503019239555 29.238336471333437 0 0 -1
368 2 6.038141894007366 11.847505791703979 26.07067858225559 1 0 -1
117 1 7.18162337143625 12.325629766767682 24.783280156961656 1 0 -1
393 2 8.582725069242334 13.398202047930894 25.22839108451503 0 0 -1
899 2 8.067533206956234 10.03185450564947 26.574115136823146 0 0 0
431 2 2.7267358602358875 17.862651648800604 4.058540783105993 0 0 0
350 2 3.792540898800266 18.25431089457458 1.2872101748010372 1 -1 0
1075 1 2.71371547144532 18.65921555200181 2.5566739931512177 1 0 1
1087 2 2.893286509698062 16.047561569034265 5.96391370766817 0 0 0
576 1 1.1608309759272843 15.924506193863373 5.823756602930907 1 0 0
455 1 3.8911027153935924 16.67293121407873 0.7363962666223473 0 0 0
912 2 1.0186986936922808 19.151709537251673 2.1265719604638003 2 0 0