# Converted from POSCAR to lammps format

4 atoms
5 atom types

0.000000  15.000000000000   xlo xhi
0.000000  15.000000000000   ylo yhi
0.000000  15.000000000000   zlo zhi

0.000000000000  0.000000000000  0.000000000000   xy xz yz

Atoms

   1  3     7.500000000000 7.500000000000 7.500000000000
   2  5     7.500000000000 7.500000000000 8.813379903908
   3  5     6.286689214331 7.852824949755 6.861539277958
   4  5     8.467126686893 6.835250034984 6.631053297529
