ITEM: TIME
0
ITEM: TIMESTEP
0
ITEM: NUMBER OF ATOMS
4
ITEM: BOX BOUNDS xy xz yz ff ff ff
0.0000000000000000e+00 1.5000000000000000e+01 0.0000000000000000e+00
0.0000000000000000e+00 1.5000000000000000e+01 0.0000000000000000e+00
0.0000000000000000e+00 1.5000000000000000e+01 0.0000000000000000e+00
ITEM: ATOMS id element xu yu zu vx vy vz fx fy fz
1 C 7.500000000000000 7.500000000000000 7.500000000000000 0.000 0.000 0.000 -0.542 0.624 -2.433
2 F 7.500000000000000 7.500000000000000 8.813379903908000 0.000 0.000 0.000 0.158 -0.722 -2.512
3 F 6.286689214331000 7.852824949755000 6.861539277958000 0.000 0.000 0.000 3.473 -1.460 1.884
4 F 8.467126686893000 6.835250034984000 6.631053297529000 0.000 0.000 0.000 -3.089 1.558 3.061
ITEM: TIME
0.001
ITEM: TIMESTEP
1
ITEM: NUMBER OF ATOMS
4
ITEM: BOX BOUNDS xy xz yz ff ff ff
0.0000000000000000e+00 1.5000000000000000e+01 0.0000000000000000e+00
0.0000000000000000e+00 1.5000000000000000e+01 0.0000000000000000e+00
0.0000000000000000e+00 1.5000000000000000e+01 0.0000000000000000e+00
ITEM: ATOMS id element xu yu zu vx vy vz fx fy fz
1 C 7.485802649466980 7.516346635462698 7.436281410499102 0.000 0.000 0.000 1.986 -0.055 0.734
2 F 7.504133284076444 7.481091749436385 8.747588828900577 0.000 0.000 0.000 0.290 -0.438 -1.270
3 F 6.377643226971243 7.814582617679886 6.910889550795387 0.000 0.000 0.000 -0.988 -0.042 -0.684
4 F 8.386236745392225 6.876053980599067 6.711212689199934 0.000 0.000 0.000 -1.288 0.535 1.220
ITEM: TIME
0.002
ITEM: TIMESTEP
2
ITEM: NUMBER OF ATOMS
4
ITEM: BOX BOUNDS xy xz yz ff ff ff
0.0000000000000000e+00 1.5000000000000000e+01 0.0000000000000000e+00
0.0000000000000000e+00 1.5000000000000000e+01 0.0000000000000000e+00
0.0000000000000000e+00 1.5000000000000000e+01 0.0000000000000000e+00
ITEM: ATOMS id element xu yu zu vx vy vz fx fy fz
1 C 7.503722990648888 7.516577922798865 7.440239094421448 0.000 0.000 0.000 0.029 0.868 0.155
2 F 7.507034733559131 7.476132859432539 8.732716545496816 0.000 0.000 0.000 0.345 -0.462 -0.331
3 F 6.372553173910738 7.812448490681491 6.906742223208839 0.000 0.000 0.000 -0.144 -0.221 -0.268
4 F 8.370505008001730 6.882915709636598 6.726274616267898 0.000 0.000 0.000 -0.229 -0.185 0.444
ITEM: TIME
0.003
ITEM: TIMESTEP
3
ITEM: NUMBER OF ATOMS
4
ITEM: BOX BOUNDS xy xz yz ff ff ff
0.0000000000000000e+00 1.5000000000000000e+01 0.0000000000000000e+00
0.0000000000000000e+00 1.5000000000000000e+01 0.0000000000000000e+00
0.0000000000000000e+00 1.5000000000000000e+01 0.0000000000000000e+00
ITEM: ATOMS id element xu yu zu vx vy vz fx fy fz
1 C 7.506233134865159 7.593003765226506 7.453868400518033 0.000 0.000 0.000 0.834 0.689 -2.252
2 F 7.537416999593681 7.435455806043325 8.703584677406312 0.000 0.000 0.000 -0.269 -0.449 1.782
3 F 6.359834786548104 7.792972109747549 6.883159902746134 0.000 0.000 0.000 -0.155 -0.264 0.210
4 F 8.350330979864623 6.866643309405497 6.765359467230998 0.000 0.000 0.000 -0.410 0.024 0.260
ITEM: TIME
0.004
ITEM: TIMESTEP
4
ITEM: NUMBER OF ATOMS
4
ITEM: BOX BOUNDS xy xz yz ff ff ff
0.0000000000000000e+00 1.5000000000000000e+01 0.0000000000000000e+00
0.0000000000000000e+00 1.5000000000000000e+01 0.0000000000000000e+00
0.0000000000000000e+00 1.5000000000000000e+01 0.0000000000000000e+00
ITEM: ATOMS id element xu yu zu vx vy vz fx fy fz
1 C 7.519702228815351 7.672958071027116 7.436407917956899 0.000 0.000 0.000 1.017 0.349 -0.736
2 F 7.561945806954410 7.391798505061407 8.700422341037775 0.000 0.000 0.000 -0.853 0.034 0.759
3 F 6.345989171374057 7.771414774343276 6.864131526805035 0.000 0.000 0.000 -0.067 -0.313 0.501
4 F 8.326178688868714 6.851903648473818 6.805010634539813 0.000 0.000 0.000 -0.097 -0.070 -0.524
ITEM: TIME
0.005
ITEM: TIMESTEP
5
ITEM: NUMBER OF ATOMS
4
ITEM: BOX BOUNDS xy xz yz ff ff ff
0.0000000000000000e+00 1.5000000000000000e+01 0.0000000000000000e+00
0.0000000000000000e+00 1.5000000000000000e+01 0.0000000000000000e+00
0.0000000000000000e+00 1.5000000000000000e+01 0.0000000000000000e+00
ITEM: ATOMS id element xu yu zu vx vy vz fx fy fz
1 C 7.556310192341804 7.685525684592404 7.409926395733394 0.000 0.000 0.000 -0.291 0.737 1.187
2 F 7.531242688925372 7.393022464986652 8.727758401853823 0.000 0.000 0.000 -0.316 0.156 -1.061
3 F 6.343580657867449 7.760134589869008 6.882154493513270 0.000 0.000 0.000 0.384 -0.315 0.348
4 F 8.322682361168901 6.849392260530301 6.786133135675527 0.000 0.000 0.000 0.222 -0.578 -0.474
ITEM: TIME
0.006
ITEM: TIMESTEP
6
ITEM: NUMBER OF ATOMS
4
ITEM: BOX BOUNDS xy xz yz ff ff ff
0.0000000000000000e+00 1.5000000000000000e+01 0.0000000000000000e+00
0.0000000000000000e+00 1.5000000000000000e+01 0.0000000000000000e+00
0.0000000000000000e+00 1.5000000000000000e+01 0.0000000000000000e+00
ITEM: ATOMS id element xu yu zu vx vy vz fx fy fz
1 C 7.577604646259764 7.708242781463578 7.412494011778359 0.000 0.000 0.000 -0.342 0.203 0.730
2 F 7.503077872047898 7.396782466337054 8.728134149490035 0.000 0.000 0.000 0.102 0.038 -1.013
3 F 6.348901997895141 7.746125351568968 6.901671476247742 0.000 0.000 0.000 0.373 -0.143 0.130
4 F 8.324231383384658 6.836924398647079 6.763672793396667 0.000 0.000 0.000 -0.133 -0.099 0.153
ITEM: TIME
0.007
ITEM: TIMESTEP
7
ITEM: NUMBER OF ATOMS
4
ITEM: BOX BOUNDS xy xz yz ff ff ff
0.0000000000000000e+00 1.5000000000000000e+01 0.0000000000000000e+00
0.0000000000000000e+00 1.5000000000000000e+01 0.0000000000000000e+00
0.0000000000000000e+00 1.5000000000000000e+01 0.0000000000000000e+00
ITEM: ATOMS id element xu yu zu vx vy vz fx fy fz
1 C 7.573756005948198 7.710528363498446 7.420710795738024 0.000 0.000 0.000 -0.082 0.067 0.229
2 F 7.504223378608875 7.397213743354379 8.716734396979893 0.000 0.000 0.000 0.064 -0.023 -0.483
3 F 6.353105435240653 7.744520392213899 6.903135933393308 0.000 0.000 0.000 0.160 -0.071 0.066
4 F 8.322731080125154 6.835812498949955 6.765391305472415 0.000 0.000 0.000 -0.142 0.028 0.188
ITEM: TIME
0.008
ITEM: TIMESTEP
8
ITEM: NUMBER OF ATOMS
4
ITEM: BOX BOUNDS xy xz yz ff ff ff
0.0000000000000000e+00 1.5000000000000000e+01 0.0000000000000000e+00
0.0000000000000000e+00 1.5000000000000000e+01 0.0000000000000000e+00
0.0000000000000000e+00 1.5000000000000000e+01 0.0000000000000000e+00
ITEM: ATOMS id element xu yu zu vx vy vz fx fy fz
1 C 7.572744431684771 7.711348614430739 7.423537347202713 0.000 0.000 0.000 -0.019 0.060 0.026
2 F 7.505015306013060 7.396932860144234 8.710774513804203 0.000 0.000 0.000 0.047 -0.049 -0.190
3 F 6.355075468125311 7.743639826832263 6.903952031450333 0.000 0.000 0.000 0.052 -0.031 0.025
4 F 8.320980694651006 6.836153696241932 6.767708540045168 0.000 0.000 0.000 -0.081 0.021 0.139
ITEM: TIME
0.009000000000000001
ITEM: TIMESTEP
9
ITEM: NUMBER OF ATOMS
4
ITEM: BOX BOUNDS xy xz yz ff ff ff
0.0000000000000000e+00 1.5000000000000000e+01 0.0000000000000000e+00
0.0000000000000000e+00 1.5000000000000000e+01 0.0000000000000000e+00
0.0000000000000000e+00 1.5000000000000000e+01 0.0000000000000000e+00
ITEM: ATOMS id element xu yu zu vx vy vz fx fy fz
1 C 7.572384065753070 7.712487785684369 7.424033400277484 0.000 0.000 0.000 0.004 0.064 -0.034
2 F 7.505916259767065 7.395991065800643 8.707159207746496 0.000 0.000 0.000 0.033 -0.048 -0.028
3 F 6.356072080454290 7.743040533237287 6.904424459757122 0.000 0.000 0.000 -0.020 -0.006 -0.008
4 F 8.319443493079111 6.836555614489543 6.770355366426050 0.000 0.000 0.000 -0.016 -0.010 0.069
ITEM: TIME
0.01
ITEM: TIMESTEP
10
ITEM: NUMBER OF ATOMS
4
ITEM: BOX BOUNDS xy xz yz ff ff ff
0.0000000000000000e+00 1.5000000000000000e+01 0.0000000000000000e+00
0.0000000000000000e+00 1.5000000000000000e+01 0.0000000000000000e+00
0.0000000000000000e+00 1.5000000000000000e+01 0.0000000000000000e+00
ITEM: ATOMS id element xu yu zu vx vy vz fx fy fz
1 C 7.572560579311372 7.715678756320302 7.422360806944828 0.000 0.000 0.000 -0.000 0.027 0.038
2 F 7.507537576808701 7.393601959069290 8.705784920216960 0.000 0.000 0.000 0.007 -0.003 -0.022
3 F 6.355092624006803 7.742727809019392 6.904039051212790 0.000 0.000 0.000 -0.020 -0.002 -0.011
4 F 8.318625117440455 6.836066474802855 6.773787659548085 0.000 0.000 0.000 0.013 -0.022 -0.005
ITEM: TIME
0.011
ITEM: TIMESTEP
11
ITEM: NUMBER OF ATOMS
4
ITEM: BOX BOUNDS xy xz yz ff ff ff
0.0000000000000000e+00 1.5000000000000000e+01 0.0000000000000000e+00
0.0000000000000000e+00 1.5000000000000000e+01 0.0000000000000000e+00
0.0000000000000000e+00 1.5000000000000000e+01 0.0000000000000000e+00
ITEM: ATOMS id element xu yu zu vx vy vz fx fy fz
1 C 7.572569954267190 7.716421894315106 7.423021025049676 0.000 0.000 0.000 0.004 0.006 -0.016
2 F 7.507784272874135 7.393387232530539 8.705248475602900 0.000 0.000 0.000 0.000 -0.007 0.008
3 F 6.354626706270579 7.742675028681261 6.903794860876463 0.000 0.000 0.000 -0.000 -0.002 0.001
4 F 8.318834964208927 6.835590842789280 6.773908076931617 0.000 0.000 0.000 -0.004 0.002 0.007
ITEM: TIME
0.012
ITEM: TIMESTEP
12
ITEM: NUMBER OF ATOMS
4
ITEM: BOX BOUNDS xy xz yz ff ff ff
0.0000000000000000e+00 1.5000000000000000e+01 0.0000000000000000e+00
0.0000000000000000e+00 1.5000000000000000e+01 0.0000000000000000e+00
0.0000000000000000e+00 1.5000000000000000e+01 0.0000000000000000e+00
ITEM: ATOMS id element xu yu zu vx vy vz fx fy fz
1 C 7.572648894594117 7.716545736160970 7.422707130589659 0.000 0.000 0.000 0.001 0.007 0.005
2 F 7.507791690087031 7.393258953053237 8.705396508092928 0.000 0.000 0.000 0.001 -0.002 -0.005
3 F 6.354626169497641 7.742643689066066 6.903819646713893 0.000 0.000 0.000 -0.002 -0.002 -0.001
4 F 8.318749142429807 6.835626620325123 6.774049154510224 0.000 0.000 0.000 0.000 -0.003 0.001
ITEM: TIME
0.013
ITEM: TIMESTEP
13
ITEM: NUMBER OF ATOMS
4
ITEM: BOX BOUNDS xy xz yz ff ff ff
0.0000000000000000e+00 1.5000000000000000e+01 0.0000000000000000e+00
0.0000000000000000e+00 1.5000000000000000e+01 0.0000000000000000e+00
0.0000000000000000e+00 1.5000000000000000e+01 0.0000000000000000e+00
ITEM: ATOMS id element xu yu zu vx vy vz fx fy fz
1 C 7.572749102467426 7.716930398146917 7.422671821086752 0.000 0.000 0.000 -0.000 0.000 0.004
2 F 7.507840566918219 7.393079885337231 8.705282981657547 0.000 0.000 0.000 -0.000 0.001 -0.003
3 F 6.354541963781553 7.742551570117122 6.903804335048699 0.000 0.000 0.000 0.000 -0.000 -0.000
4 F 8.318684267498874 6.835513142001188 6.774213305166879 0.000 0.000 0.000 0.000 -0.001 -0.001
