LAMMPS data file via write_data, version 2 Aug 2023, timestep = 8, units = metal

3 atoms
5 atom types

0 15 xlo xhi
0 15 ylo yhi
0 15 zlo zhi
0 0 0 xy xz yz

Masses

1 28.0855
2 15.999
3 12.011
4 1.00784
5 18.998

Atoms # atomic

3 5 6.936130410405461 8.59399813186791 7.1292119904614415 0 0 0
2 5 7.485163854618682 7.528784519737895 8.842425025780237 0 0 0
1 3 7.5157582414128585 7.469426464939193 7.519976002908319 0 0 0

Velocities

3 0 0 0
2 0 0 0
1 0 0 0
