ITEM: TIME
0
ITEM: TIMESTEP
0
ITEM: NUMBER OF ATOMS
3
ITEM: BOX BOUNDS xy xz yz pp pp ff
0.0000000000000000e+00 1.5000000000000000e+01 0.0000000000000000e+00
0.0000000000000000e+00 1.5000000000000000e+01 0.0000000000000000e+00
0.0000000000000000e+00 1.5000000000000000e+01 0.0000000000000000e+00
ITEM: ATOMS id element xu yu zu vx vy vz fx fy fz
1 C 7.500000000000000 7.500000000000000 7.500000000000000 0.000 0.000 0.000 0.636 -1.234 1.374
2 F 7.500000000000000 7.500000000000000 8.897563608336000 0.000 0.000 0.000 -0.327 0.635 -1.964
3 F 6.937052506437000 8.592209116545000 7.094049410813998 0.000 0.000 0.000 -0.309 0.599 0.590
ITEM: TIME
0.001
ITEM: TIMESTEP
1
ITEM: NUMBER OF ATOMS
3
ITEM: BOX BOUNDS xy xz yz pp pp ff
0.0000000000000000e+00 1.5000000000000000e+01 0.0000000000000000e+00
0.0000000000000000e+00 1.5000000000000000e+01 0.0000000000000000e+00
0.0000000000000000e+00 1.5000000000000000e+01 0.0000000000000000e+00
ITEM: ATOMS id element xu yu zu vx vy vz fx fy fz
1 C 7.511593674969502 7.477506396882941 7.525040251868941 0.000 0.000 0.000 0.032 -0.062 0.022
2 F 7.494035455128440 7.511572180992454 8.861775138840903 0.000 0.000 0.000 -0.204 0.395 -0.634
3 F 6.931423376339058 8.603130538669605 7.104797628440155 0.000 0.000 0.000 0.172 -0.333 0.612
ITEM: TIME
0.002
ITEM: TIMESTEP
2
ITEM: NUMBER OF ATOMS
3
ITEM: BOX BOUNDS xy xz yz pp pp ff
0.0000000000000000e+00 1.5000000000000000e+01 0.0000000000000000e+00
0.0000000000000000e+00 1.5000000000000000e+01 0.0000000000000000e+00
0.0000000000000000e+00 1.5000000000000000e+01 0.0000000000000000e+00
ITEM: ATOMS id element xu yu zu vx vy vz fx fy fz
1 C 7.512291000926602 7.476153471829971 7.525519754841443 0.000 0.000 0.000 0.119 -0.230 -0.196
2 F 7.489596007683877 7.520185426502589 8.847937617562284 0.000 0.000 0.000 -0.117 0.227 -0.073
3 F 6.935165497826521 8.595870218212440 7.118155646746273 0.000 0.000 0.000 -0.002 0.004 0.269
ITEM: TIME
0.003
ITEM: TIMESTEP
3
ITEM: NUMBER OF ATOMS
3
ITEM: BOX BOUNDS xy xz yz pp pp ff
0.0000000000000000e+00 1.5000000000000000e+01 0.0000000000000000e+00
0.0000000000000000e+00 1.5000000000000000e+01 0.0000000000000000e+00
0.0000000000000000e+00 1.5000000000000000e+01 0.0000000000000000e+00
ITEM: ATOMS id element xu yu zu vx vy vz fx fy fz
1 C 7.515564789296103 7.469801793309872 7.520106401705704 0.000 0.000 0.000 -0.023 0.045 0.045
2 F 7.486375214932946 7.526434284957939 8.845929320433347 0.000 0.000 0.000 -0.026 0.051 -0.146
3 F 6.935112502207952 8.595973038277188 7.125577297010947 0.000 0.000 0.000 0.049 -0.096 0.101
ITEM: TIME
0.004
ITEM: TIMESTEP
4
ITEM: NUMBER OF ATOMS
3
ITEM: BOX BOUNDS xy xz yz pp pp ff
0.0000000000000000e+00 1.5000000000000000e+01 0.0000000000000000e+00
0.0000000000000000e+00 1.5000000000000000e+01 0.0000000000000000e+00
0.0000000000000000e+00 1.5000000000000000e+01 0.0000000000000000e+00
ITEM: ATOMS id element xu yu zu vx vy vz fx fy fz
1 C 7.515386236650201 7.470148214299159 7.520492981712932 0.000 0.000 0.000 0.005 -0.010 -0.005
2 F 7.485884652722657 7.527386054926608 8.843863562801522 0.000 0.000 0.000 -0.018 0.034 -0.047
3 F 6.935781617064142 8.594674847319233 7.127256474635544 0.000 0.000 0.000 0.013 -0.024 0.051
ITEM: TIME
0.005
ITEM: TIMESTEP
5
ITEM: NUMBER OF ATOMS
3
ITEM: BOX BOUNDS xy xz yz pp pp ff
0.0000000000000000e+00 1.5000000000000000e+01 0.0000000000000000e+00
0.0000000000000000e+00 1.5000000000000000e+01 0.0000000000000000e+00
0.0000000000000000e+00 1.5000000000000000e+01 0.0000000000000000e+00
ITEM: ATOMS id element xu yu zu vx vy vz fx fy fz
1 C 7.515525444235264 7.469878129086530 7.520364502700179 0.000 0.000 0.000 0.010 -0.019 -0.017
2 F 7.485400673004053 7.528325053797597 8.842588175399190 0.000 0.000 0.000 -0.007 0.013 0.004
3 F 6.936126389197684 8.594005933660872 7.128660341050630 0.000 0.000 0.000 -0.003 0.006 0.013
ITEM: TIME
0.006
ITEM: TIMESTEP
6
ITEM: NUMBER OF ATOMS
3
ITEM: BOX BOUNDS xy xz yz pp pp ff
0.0000000000000000e+00 1.5000000000000000e+01 0.0000000000000000e+00
0.0000000000000000e+00 1.5000000000000000e+01 0.0000000000000000e+00
0.0000000000000000e+00 1.5000000000000000e+01 0.0000000000000000e+00
ITEM: ATOMS id element xu yu zu vx vy vz fx fy fz
1 C 7.515736445463792 7.469468752602871 7.520001952074310 0.000 0.000 0.000 -0.001 0.002 0.002
2 F 7.485255767695246 7.528606193515109 8.842668926143505 0.000 0.000 0.000 -0.002 0.004 -0.010
3 F 6.936060293277963 8.594134170427020 7.128942140932183 0.000 0.000 0.000 0.003 -0.006 0.008
ITEM: TIME
0.007
ITEM: TIMESTEP
7
ITEM: NUMBER OF ATOMS
3
ITEM: BOX BOUNDS xy xz yz pp pp ff
0.0000000000000000e+00 1.5000000000000000e+01 0.0000000000000000e+00
0.0000000000000000e+00 1.5000000000000000e+01 0.0000000000000000e+00
0.0000000000000000e+00 1.5000000000000000e+01 0.0000000000000000e+00
ITEM: ATOMS id element xu yu zu vx vy vz fx fy fz
1 C 7.515760769081973 7.469421560852611 7.519966551925659 0.000 0.000 0.000 -0.000 0.000 0.001
2 F 7.485163473420132 7.528785259324686 8.842435612931972 0.000 0.000 0.000 0.000 -0.000 -0.001
3 F 6.936128263934895 8.594002296367703 7.129210854292365 0.000 0.000 0.000 0.000 -0.000 0.000
ITEM: TIME
0.008
ITEM: TIMESTEP
8
ITEM: NUMBER OF ATOMS
3
ITEM: BOX BOUNDS xy xz yz pp pp ff
0.0000000000000000e+00 1.5000000000000000e+01 0.0000000000000000e+00
0.0000000000000000e+00 1.5000000000000000e+01 0.0000000000000000e+00
0.0000000000000000e+00 1.5000000000000000e+01 0.0000000000000000e+00
ITEM: ATOMS id element xu yu zu vx vy vz fx fy fz
1 C 7.515758241412859 7.469426464939194 7.519976002908319 0.000 0.000 0.000 0.000 -0.000 0.000
2 F 7.485163854618682 7.528784519737894 8.842425025780237 0.000 0.000 0.000 -0.000 0.000 -0.000
3 F 6.936130410405461 8.593998131867911 7.129211990461441 0.000 0.000 0.000 -0.000 0.000 0.000
