LAMMPS data file via write_data, version 2 Aug 2023, timestep = 11, units = metal

4 atoms
5 atom types

0 15 xlo xhi
0 15 ylo yhi
0 15 zlo zhi
0 0 0 xy xz yz

Masses

1 28.0855
2 15.999
3 12.011
4 1.00784
5 18.998

Atoms # atomic

3 5 6.916644117885178 6.265156361506091 7.24063988691059 0 0 0
4 5 8.768123041673707 7.397707618853026 7.067008293118791 0 0 0
1 3 7.529511048690906 7.404951942901752 7.555436952354606 0 0 0
2 4 7.525049862146316 7.574699432519727 8.616203792122866 0 0 0

Velocities

3 0 0 0
4 0 0 0
1 0 0 0
2 0 0 0
