LAMMPS data file via write_data, version 2 Aug 2023, timestep = 10, units = metal

3 atoms
5 atom types

0 15 xlo xhi
0 15 ylo yhi
0 15 zlo zhi
0 0 0 xy xz yz

Masses

1 28.0855
2 15.999
3 12.011
4 1.00784
5 18.998

Atoms # atomic

3 5 6.231149128654422 7.431491708706402 7.176740604290733 0 0 0
2 4 7.478270440792716 7.4988267691613935 8.621779996187511 0 0 0
1 3 7.512549746848864 7.500677590828203 7.499342477598753 0 0 0

Velocities

3 0 0 0
2 0 0 0
1 0 0 0
