ITEM: TIME
0
ITEM: TIMESTEP
0
ITEM: NUMBER OF ATOMS
3
ITEM: BOX BOUNDS xy xz yz pp pp ff
0.0000000000000000e+00 1.5000000000000000e+01 0.0000000000000000e+00
0.0000000000000000e+00 1.5000000000000000e+01 0.0000000000000000e+00
0.0000000000000000e+00 1.5000000000000000e+01 0.0000000000000000e+00
ITEM: ATOMS id element xu yu zu vx vy vz fx fy fz
1 C 7.500000000000000 7.500000000000000 7.500000000000000 0.000 0.000 0.000 0.184 0.010 0.188
2 H 7.500000000000000 7.500000000000000 8.642959691908001 0.000 0.000 0.000 -0.409 -0.022 -0.615
3 F 6.221969316296000 7.430996068696000 7.154903386169000 0.000 0.000 0.000 0.226 0.012 0.427
ITEM: TIME
0.001
ITEM: TIMESTEP
1
ITEM: NUMBER OF ATOMS
3
ITEM: BOX BOUNDS xy xz yz pp pp ff
0.0000000000000000e+00 1.5000000000000000e+01 0.0000000000000000e+00
0.0000000000000000e+00 1.5000000000000000e+01 0.0000000000000000e+00
0.0000000000000000e+00 1.5000000000000000e+01 0.0000000000000000e+00
ITEM: ATOMS id element xu yu zu vx vy vz fx fy fz
1 C 7.505049863215901 7.500272654184980 7.505181433086493 0.000 0.000 0.000 0.174 0.009 -0.220
2 H 7.488741037512048 7.499392101704616 8.626032625777194 0.000 0.000 0.000 -0.231 -0.012 0.003
3 F 6.228178415568051 7.431331312806405 7.166649019213312 0.000 0.000 0.000 0.057 0.003 0.218
ITEM: TIME
0.002
ITEM: TIMESTEP
2
ITEM: NUMBER OF ATOMS
3
ITEM: BOX BOUNDS xy xz yz pp pp ff
0.0000000000000000e+00 1.5000000000000000e+01 0.0000000000000000e+00
0.0000000000000000e+00 1.5000000000000000e+01 0.0000000000000000e+00
0.0000000000000000e+00 1.5000000000000000e+01 0.0000000000000000e+00
ITEM: ATOMS id element xu yu zu vx vy vz fx fy fz
1 C 7.511943788419454 7.500644873684266 7.496446833988133 0.000 0.000 0.000 0.002 0.000 0.184
2 H 7.479597488286944 7.498898419627457 8.626145933508324 0.000 0.000 0.000 -0.012 -0.001 -0.203
3 F 6.230428039589601 7.431452775384278 7.175270310580541 0.000 0.000 0.000 0.010 0.001 0.018
ITEM: TIME
0.003
ITEM: TIMESTEP
3
ITEM: NUMBER OF ATOMS
3
ITEM: BOX BOUNDS xy xz yz pp pp ff
0.0000000000000000e+00 1.5000000000000000e+01 0.0000000000000000e+00
0.0000000000000000e+00 1.5000000000000000e+01 0.0000000000000000e+00
0.0000000000000000e+00 1.5000000000000000e+01 0.0000000000000000e+00
ITEM: ATOMS id element xu yu zu vx vy vz fx fy fz
1 C 7.513762857449185 7.500743089569037 7.497355016454168 0.000 0.000 0.000 -0.041 -0.002 0.102
2 H 7.477026994230088 7.498759632509449 8.622696381458605 0.000 0.000 0.000 0.034 0.002 -0.076
3 F 6.231179464616726 7.431493346617514 7.177811680164226 0.000 0.000 0.000 0.007 0.000 -0.026
ITEM: TIME
0.004
ITEM: TIMESTEP
4
ITEM: NUMBER OF ATOMS
3
ITEM: BOX BOUNDS xy xz yz pp pp ff
0.0000000000000000e+00 1.5000000000000000e+01 0.0000000000000000e+00
0.0000000000000000e+00 1.5000000000000000e+01 0.0000000000000000e+00
0.0000000000000000e+00 1.5000000000000000e+01 0.0000000000000000e+00
ITEM: ATOMS id element xu yu zu vx vy vz fx fy fz
1 C 7.513221603745823 7.500713865987912 7.498710506816404 0.000 0.000 0.000 -0.020 -0.001 0.028
2 H 7.477481971598374 7.498784197825029 8.621689762612222 0.000 0.000 0.000 0.019 0.001 -0.012
3 F 6.231265740951802 7.431498004883059 7.177462808648372 0.000 0.000 0.000 0.001 0.000 -0.016
ITEM: TIME
0.005
ITEM: TIMESTEP
5
ITEM: NUMBER OF ATOMS
3
ITEM: BOX BOUNDS xy xz yz pp pp ff
0.0000000000000000e+00 1.5000000000000000e+01 0.0000000000000000e+00
0.0000000000000000e+00 1.5000000000000000e+01 0.0000000000000000e+00
0.0000000000000000e+00 1.5000000000000000e+01 0.0000000000000000e+00
ITEM: ATOMS id element xu yu zu vx vy vz fx fy fz
1 C 7.512787041229407 7.500690402918979 7.499319618715565 0.000 0.000 0.000 -0.004 -0.000 -0.003
2 H 7.477889234456010 7.498806186920134 8.621423134097990 0.000 0.000 0.000 0.008 0.000 0.011
3 F 6.231293040610582 7.431499478856887 7.177120325263444 0.000 0.000 0.000 -0.004 -0.000 -0.008
ITEM: TIME
0.006
ITEM: TIMESTEP
6
ITEM: NUMBER OF ATOMS
3
ITEM: BOX BOUNDS xy xz yz pp pp ff
0.0000000000000000e+00 1.5000000000000000e+01 0.0000000000000000e+00
0.0000000000000000e+00 1.5000000000000000e+01 0.0000000000000000e+00
0.0000000000000000e+00 1.5000000000000000e+01 0.0000000000000000e+00
ITEM: ATOMS id element xu yu zu vx vy vz fx fy fz
1 C 7.512564299118659 7.500678376540032 7.499287093324941 0.000 0.000 0.000 -0.000 -0.000 0.003
2 H 7.478244792859108 7.498825384368156 8.621810948327596 0.000 0.000 0.000 0.001 0.000 -0.002
3 F 6.231160224318232 7.431492307787812 7.176765036424461 0.000 0.000 0.000 -0.001 -0.000 -0.001
ITEM: TIME
0.007
ITEM: TIMESTEP
7
ITEM: NUMBER OF ATOMS
3
ITEM: BOX BOUNDS xy xz yz pp pp ff
0.0000000000000000e+00 1.5000000000000000e+01 0.0000000000000000e+00
0.0000000000000000e+00 1.5000000000000000e+01 0.0000000000000000e+00
0.0000000000000000e+00 1.5000000000000000e+01 0.0000000000000000e+00
ITEM: ATOMS id element xu yu zu vx vy vz fx fy fz
1 C 7.512548402597226 7.500677518248844 7.499340340210197 0.000 0.000 0.000 -0.000 -0.000 0.000
2 H 7.478279950128329 7.498827282593153 8.621792863037363 0.000 0.000 0.000 -0.000 -0.000 -0.000
3 F 6.231140963570446 7.431491267854002 7.176729874829438 0.000 0.000 0.000 0.000 0.000 0.000
ITEM: TIME
0.008
ITEM: TIMESTEP
8
ITEM: NUMBER OF ATOMS
3
ITEM: BOX BOUNDS xy xz yz pp pp ff
0.0000000000000000e+00 1.5000000000000000e+01 0.0000000000000000e+00
0.0000000000000000e+00 1.5000000000000000e+01 0.0000000000000000e+00
0.0000000000000000e+00 1.5000000000000000e+01 0.0000000000000000e+00
ITEM: ATOMS id element xu yu zu vx vy vz fx fy fz
1 C 7.512544483176550 7.500677306629954 7.499345171857908 0.000 0.000 0.000 0.000 0.000 -0.000
2 H 7.478276322942010 7.498827086752694 8.621782681920195 0.000 0.000 0.000 -0.000 -0.000 -0.000
3 F 6.231148510177440 7.431491675313351 7.176735224298896 0.000 0.000 0.000 -0.000 -0.000 0.000
ITEM: TIME
0.009000000000000001
ITEM: TIMESTEP
9
ITEM: NUMBER OF ATOMS
3
ITEM: BOX BOUNDS xy xz yz pp pp ff
0.0000000000000000e+00 1.5000000000000000e+01 0.0000000000000000e+00
0.0000000000000000e+00 1.5000000000000000e+01 0.0000000000000000e+00
0.0000000000000000e+00 1.5000000000000000e+01 0.0000000000000000e+00
ITEM: ATOMS id element xu yu zu vx vy vz fx fy fz
1 C 7.512549759622605 7.500677591517888 7.499343005843288 0.000 0.000 0.000 -0.000 -0.000 -0.000
2 H 7.478272342106634 7.498826871817878 8.621781659779856 0.000 0.000 0.000 -0.000 -0.000 -0.000
3 F 6.231147214566763 7.431491605360234 7.176738412453854 0.000 0.000 0.000 0.000 0.000 0.000
ITEM: TIME
0.01
ITEM: TIMESTEP
10
ITEM: NUMBER OF ATOMS
3
ITEM: BOX BOUNDS xy xz yz pp pp ff
0.0000000000000000e+00 1.5000000000000000e+01 0.0000000000000000e+00
0.0000000000000000e+00 1.5000000000000000e+01 0.0000000000000000e+00
0.0000000000000000e+00 1.5000000000000000e+01 0.0000000000000000e+00
ITEM: ATOMS id element xu yu zu vx vy vz fx fy fz
1 C 7.512549746848864 7.500677590828203 7.499342477598753 0.000 0.000 0.000 0.000 0.000 0.000
2 H 7.478270440792716 7.498826769161394 8.621779996187511 0.000 0.000 0.000 0.000 0.000 -0.000
3 F 6.231149128654422 7.431491708706402 7.176740604290733 0.000 0.000 0.000 -0.000 -0.000 -0.000
