(written by ASE)

1829 atoms
5 atom types

0.0                      20  xlo xhi
0.0                      20  ylo yhi
0.0                     200  zlo zhi

Atoms # atomic

     1   2      7.0841132359834136      5.0554732964023055      12.791715253593999
     2   1       2.800474271323012       3.219788474816816      12.097176912511216
     3   2      2.2387923818883952      3.2026078531756608      13.699693748704183
     4   1      3.2631307145033395     0.49735747522308593      12.829887390519728
     5   1      7.5737877638555062      1.3127447527515532      13.605846415480087
     6   2      6.4231015174123751      8.0053560281910805      13.377392139304009
     7   1      7.8260829616966499      7.9425682409728502      12.496153773974354
     8   2      8.9757561899340814      7.2682434747160869      13.637445656418915
     9   2      1.6644845069503234     0.48757461082807219      12.833432155935366
    10   2      6.9549765959529628      2.7883073938246579      14.110952593140661
    11   1      7.5905411647872345        4.33137239097994      14.116380108154022
    12   2      9.1433342389882561      1.2447908206901381      13.966894405269874
    13   2      4.2815583155409831     0.91322764908649212      14.111446793671123
    14   2      9.2054827933344239      3.9774118467607176      14.446485483282554
    15   2      19.839515281527898      1.5100379337344894      13.936226073633666
    16   1      10.046954648320272      2.6318864581371653      14.017172924782772
    17   2      10.198558365061107      3.0499078478946262      12.379507782548563
    18   2      17.669725750258628      3.0912317922404009      13.446830251804922
    19   2      17.139661082539355     0.86756659919389656      12.350454074639819
    20   2      11.613295661770236      7.9082515159421582       12.90744593461617
    21   2      18.148863163825112      6.2749970322366586      13.442489616781865
    22   2      14.133800591900281      9.0283634948192102       13.09584810351766
    23   1      19.102313238299679      6.9497502983438286      12.111653320891739
    24   1      13.672902183641941      3.5387405106520591      13.552104992073787
    25   2      19.492890367383751       8.397569244284897      12.792514280693522
    26   2       15.24134458224478      3.2062559393961165      13.015483269424447
    27   2      16.705620227087774      8.9307150835267084      12.906104958387965
    28   2      13.129345228485425      1.9663761314914632      13.652075168358953
    29   1      13.622558406918976     0.42071915307623081      13.477495165244965
    30   2      12.720295318028594      4.3381177610221808      12.414594634530442
    31   1      18.279572034302493      9.4356528289132768      13.002796986823306
    32   1      12.547556135691131      9.2521290129958231      12.829749614245687
    33   1      16.621685762838524      2.4730613873268705      12.384403238356921
    34   1      18.689599142928454      2.4851299615959088      14.565612838609583
    35   2      4.7427363786852803      9.3767783498600252      14.666764311131493
    36   2      8.2648913042639442      4.2185219426022647        17.5891135009248
    37   1      1.6278008312047354      5.9689882362484772      16.517884956395669
    38   2      1.2336296554565926      7.4901342654117897      15.992909084237089
    39   1      1.4379882311975631      8.9144036250948275      16.794380448954747
    40   2      9.3350920999674329      9.6866123043559185      17.679857415055448
    41   2      4.5771046044291035      3.8855711380600866      16.069996862440966
    42   2      1.5812033127830174      2.2306117973380508      16.320018749861529
    43   2      4.7499543995046238      1.1005415767050213      16.580565810139166
    44   2      3.1964674928444126      6.0401731399844945      17.040621504404918
    45   1      1.3691206303714143       3.365924089777419      15.097082674307295
    46   2       6.570968833625952      8.1315370085832601      16.252044226901518
    47   2      7.6809477874287024      5.6488526519683289      15.100539461548347
    48   2      9.4017302390892592      6.5062903731874311      16.718231025114004
    49   2      1.8241138930997927      4.9107958582078055      15.322927413536679
    50   2     0.57313508603027286      5.4120933447983983      17.597763453463621
    51   1       4.506822809207752      5.5345481323114463      16.219770461426634
    52   2      4.8278068614480389      6.5772877699075547      14.959036941642541
    53   1      4.6927172124645953      2.6509150673623134      17.181056411046029
    54   2      6.7604204421532241     0.38468042093612215      15.273281738455601
    55   2      5.6804489592640675      5.8429288907086381      17.272385961969263
    56   1       6.282757482803647      7.3084108772645902      17.645586923722831
    57   1      5.6753098188085085      8.0216824401638895      14.804406748770532
    58   1      5.0920269022233535      0.2037951982078251      15.289267619235449
    59   2      8.2723603611901364      1.5275551316309279      17.587009346666207
    60   1      8.7425699088022526      5.7859363961921009      18.062313007959297
    61   2      2.9734310472195786      9.0067145634998074      17.319986728700993
    62   1      1.9442863547989264      1.9742462286641294      17.970963250165774
    63   2      5.9916128465272314      2.8945068376189735      18.032323282032564
    64   1      7.5893527090025881      2.9025617284203458      18.177045466272368
    65   1      9.2550980043418907      6.2447996985928897      15.066861336677761
    66   2       11.80123444169795      9.7044272819413351      16.858561019933411
    67   2      13.215314499809194      4.4475227447907031      14.957503851472694
    68   2       18.27837129086431      8.1860349190494581      15.513943886578307
    69   2      17.722882545896471      1.8422715161295324      15.736530221347781
    70   2      10.954359237374947      5.9368261134674762      14.962146793290081
    71   2      19.722350056178342      3.6451283497083509      15.059237938523504
    72   2      15.971129202990495      7.3980059430905243      14.895812379632662
    73   1       17.53007712047037      6.8530780376571876       14.88105467746229
    74   1      15.348107005780216      7.8243920227672881      16.389189442204081
    75   2      16.774440951812821      4.2081883367466855      18.046255841197098
    76   2       12.62788174631579      6.4073333504825625       17.16531620296135
    77   2      13.105577068257137      1.9691419376064134      17.105613637789709
    78   1       16.75478143746443      5.7093440712565782      17.490703833882755
    79   2      16.163183773559339      8.6999071182774657      17.535372708575977
    80   2      10.658906121825893      1.9795727649969352       18.05175526099621
    81   2      15.669434633957824      1.4146596559881142      17.224901944413872
    82   2      14.084893697553911      8.8248763208568555      16.094010231434275
    83   1      17.944640853007357      9.8249351510780603      15.696907949420996
    84   2      11.137867489809381      2.3662377999247655      15.202905666442202
    85   2      11.467932775780307      4.1843541388662988      17.020166483125337
    86   1      17.293041941331037      1.2163028783136995      17.214526714670239
    87   1      12.121266621355534      5.3233578413371632      15.952835775727305
    88   2      17.613527893727209       5.665432081612253      16.067783360320171
    89   2      15.262083793477306      6.3857337516674004      17.173961402292967
    90   1      11.600437420880231      2.5877430965769928      16.849200524010232
    91   2      1.8108559368905086     0.44598070190948802       18.64280073556457
    92   2      5.2261623864121223      8.1566946987602442      18.571424204551448
    93   2      3.4118234005092596       2.700001076920822      18.138553715649024
    94   1      9.5458716807045043     0.70264802197821941      18.239770643448111
    95   1      10.849368277468876      9.4774122301864274      18.170476358004038
    96   1      14.330546528590286      1.6401161346437054      18.159609642712624
    97   2      14.105654276223429     0.35236886363172132      19.104953604551717
    98   1      17.720016297232846      3.4631062158836645      19.154245277572691
    99   1      3.9125197768559454       9.107407012334372      18.674352884577218
   100   2       17.39485171689828      6.6629526217512547      18.640624516784698
   101   2      11.046347957947107      7.9806287163308838       18.65880408103753
   102   1      12.318437065882861      6.9582799194341938      18.738856555530056
   103   2      1.0034352095893557      2.9744912726992641      18.865215907530022
   104   1     0.59950328422055787      4.5570977151690659      19.030049582544052
   105   2      7.6218281586175518      6.9600172281649497       18.44384838374058
   106   2     0.39978884085113048      9.0640792133860177      18.034513252873207
   107   1      16.942204945592785      8.2059557743973262      18.923401142285663
   108   2      18.082325437079838      1.9979394427853796       18.42703637224826
   109   2      3.0381235858109656      8.6584860582632377      20.050684455250689
   110   1      8.8017622199425372     0.45487787636591281      21.413809568581328
   111   1      1.4596890497954127      5.5800823675101547       21.56860061309234
   112   2      1.5137588736268004      5.5888586344263071      19.920529952937727
   113   2      7.3371165148323714      1.1019749516156856      21.756874903595506
   114   5      7.8555066373324509      2.9391436790204746      19.764364996079166
   115   2     0.61400546903256481      4.1465667373904687      21.668115333597115
   116   2      2.0982411931603453      2.0581312259363607      22.332647620197939
   117   2      2.8079447904464399      5.5936913723734341      22.457649964981723
   118   2      9.3946811420909704      5.5056913371701324      19.529082342955252
   119   1     0.70045819856095926      2.8279688470568582      22.556254293646528
   120   2     0.42911788436862108       6.738873879337719      22.121854057107011
   121   2      3.7319812758318771      8.7741225732730541      21.183667302151285
   122   2      9.1456556172182424      0.2450847348428016      19.745495367214367
   123   1      5.9224346290111516     0.67458322079453448      22.476930861325638
   124   2       13.76731544339524     0.10103713889947485      22.039232801941459
   125   2      4.8469467435711246      1.8973485923764144      22.543483792070138
   126   2      14.475234721373207      2.8586824866601477      19.215485614198904
   127   2      14.438940553090287      4.6288832584736479       21.09186102576032
   128   2      14.461835480766103      7.0662003008270311      22.046697978660887
   129   2      15.912771972250095      8.2256402819581016      20.266065402861216
   130   1      15.174158712271865      3.2567606721723257      20.658072040814631
   131   2      10.097865593677644      1.3713255597759413      21.794593499868313
   132   1      14.427920314635937      8.2667483277376022      20.901429978569279
   133   2       10.01725046754699       6.086211695620662      22.061007671113906
   134   2      18.149620216592105      9.2111546944761518      19.246844399491103
   135   1      10.847858889088114       2.677998229065893      22.405164020743271
   136   2      15.027228438548727      2.1661333750861278      21.897183839887767
   137   1      14.577415677089549       5.495897680032372      22.465391733337452
   138   2      13.473311895004453      7.9141743347894344      19.529481416790709
   139   2      14.017560307005681       9.531158582256289      21.929851740623491
   140   2      19.516627173454708      1.8056355540087154      22.064939354931759
   141   2       18.99429176107477      4.4603637621787104      19.408835842735105
   142   2      11.832211625529778      5.8518360334183841       19.86637388089995
   143   2      16.818972537465832      3.3061926989729695      20.492787034019898
   144   1      10.489002720999871      5.3373994952103923      20.731448065684447
   145   2      10.784413010013026      3.8472070174427797      21.232238304182886
   146   1       3.641235719296585      5.3898826550623182      24.042921097050499
   147   2      18.096736154187219      6.7950585378214177      23.629261931634908
   148   2      15.985006231095609      5.1311180190723826      23.144949595599392
   149   5      13.335964261708821      5.0904697005147357      23.413921414174649
   150   2      7.5986179609301852      6.2574461396550562      23.418480847600797
   151   2      17.765522340005376      1.6997411300762499      24.088359954320168
   152   1      17.112218643440187      5.6577789019750826      24.236367219668004
   153   1      19.727156520239355      6.9804552969597022      23.570032086411448
   154   1      13.777678894295127      1.4872479632256173       22.79229330160361
   155   2      3.5029282736859706      3.7140413911584162      23.744074167688883
   156   2     0.38395072844168548      3.4658311840870049      24.012140035739545
   157   2      3.2939697555704228      7.0627395713519947      24.258003715676075
   158   2      9.6158589758524258      8.1211097859924575      23.546136344323322
   159   1      18.931744429328774     0.86643772220540538      23.251978075453739
   160   2     0.33641631279256795     0.62116262443162495      24.043205868991322
   161   2      5.2574790887182612       5.397516573087568      23.811329366669483
   162   1      3.4471123485841471      2.2239418873027601      23.318073986288653
   163   1      9.2392924620718517      6.4585547131085352      23.492059890455934
   164   2      19.963075665307919      8.5322331156726783       23.89826974186056
   165   2      10.018970225853055      3.1207222621123032      23.767562150012374
   166   2      6.1686808346155626     0.18913146925904858      24.033556639425601
   167   2      12.405110321014172      2.3343355890956237      22.644358122242874
   168   1      1.5254022820207025     0.60851667493086248      25.160611267605795
   169   1      3.3414383986210838      8.2413381977039375      25.288917780391568
   170   2      6.7981993630066073      5.8892439270531307      26.075102386613185
   171   2      3.3662243130396408      5.1128165992875276      25.751507207692597
   172   2      8.8215957262357811      2.7327600699042782      26.383187197951656
   173   2      4.8144809907848476      8.9811925869236795      25.380813805915967
   174   1      8.7355315138930667      2.6684938042130919      24.727679451113143
   175   2      2.2786177006997752      9.4396374804742251      25.024309787479758
   176   1     0.74508069494095541       9.771618272776859      24.676270114867208
   177   1      6.7608058927416792      5.2450586281351788      24.492550668166757
   178   2      7.4493180289537673      3.7524439860439829      24.392837066392119
   179   2     0.96705062003658415      1.4438779123703316      26.526357374698915
   180   2      8.6625707080506071      8.9826802715090945      25.819979497946438
   181   2     0.33437606157251337      6.0382511257673297      24.842063351460517
   182   2      2.9805390184169234      7.6587133552779996      26.819686585789622
   183   2       2.888634345688966      1.3252683276470834      24.608239612791905
   184   2      14.041350116690889      1.1769755326717113      24.340932314139167
   185   2     0.05381184240590315      4.0277463699848903      26.647783348500134
   186   2      10.943067785983976      7.5912498980251986      25.871446853660593
   187   1      10.531960075867723      6.0213680031791839       26.43946639045242
   188   2      8.4333576157210395      1.1323216163598959      24.445328832374852
   189   2      18.087966672002295      4.4777413901082763       24.79068665658297
   190   2      10.987608091349388      4.3980701039170462      26.320233141818406
   191   2      16.203251555331139      6.1375402554078136      25.491555221752169
   192   1       17.44855465362609      1.2497240577613149      25.612347584330646
   193   1       10.07018613088414      8.6414329750776648      24.985325996872177
   194   2      12.114964069683465      2.1230050120156521      25.768453729562818
   195   1      13.052548604194207     0.80840046042435054       25.62611211780181
   196   2      15.996236677690096      1.6108491563934424      26.301538806360739
   197   1      19.748190247472579      4.5161999335638203      25.077849070167279
   198   2       18.40924496391635      1.8416603568682366      26.722273444633075
   199   2      19.744523279301234      9.8694162455181207      26.057222704189165
   200   2      9.6978216033445914      5.7444919634447276       24.84945159073073
   201   1      11.776427046832739      3.1516641268745365      27.016184284461684
   202   1      19.840108887782122      2.4666513296916888      27.149797031243335
   203   2      9.1828402957296831      5.8066588373838615       27.38604192369105
   204   2       2.270573084956331      5.4447938585619928      28.218338051698392
   205   1      8.3575569620313299      9.5826883397209421       27.28190844948152
   206   2      6.6910083433508403      9.3593478803026979       27.32656642718927
   207   2      15.879547751492691      7.5872777892730658      27.614985869644777
   208   2      10.743951847491077      2.1399580693211027      27.941194031474378
   209   2      11.623542590849747      6.2388683540684919       27.77416103407981
   210   2      17.610874106788334      5.7814793875257706      27.700233790843438
   211   1      14.894998338918203      8.8456366018627968      27.951415975052722
   212   1      13.989398357824196       4.544920691809331      28.883038994609116
   213   2      13.333436523242339      8.4010271620549091      28.214771439773962
   214   2      13.149831035850426      3.5542208865961431       27.72337392890995
   215   1      7.5997147783588312      5.7594027521305966      27.491266726990517
   216   2      4.4471395902648077       3.313659525232624      28.665889400809025
   217   1      12.541180163146599      7.0593895269077356       28.74655924113971
   218   1       15.28791454268049     0.83989695398715924      27.553708941543452
   219   2      19.582785248458059      2.4487919926741668      28.766608698244887
   220   1      5.3351908214468304      4.6186253387167389      28.889584919073599
   221   2      8.9141771962096179      8.7475657639354143      28.553696416203014
   222   1      3.3317368978399013      6.0234864751293316      27.120613973916015
   223   2      4.6200156677157374      5.8628073960607265      28.174538950990442
   224   2      7.1782418942913484      6.7697947005377523      28.801542150900072
   225   2      8.5141561280072544     0.36913009715998452      27.864243967100876
   226   1      9.1355906498323023      1.8813500489441426      27.802639972528905
   227   1      18.332176249199211      6.6138782868191059      28.887757053818323
   228   2      13.798032354350775     0.65626048888581467      27.047954624720916
   229   1      16.097961220685637      6.0582687464354565      27.114431037226741
   230   2      15.088216701230593      4.9600393974136789      27.642426386975188
   231   2      6.8378008206113847      4.4105423840488065      28.165193092776711
   232   2      19.947987993282833      6.5248953158621745      28.659294796134997
   233   1      8.0861801517293461      7.8433454541568537      29.611032067126921
   234   2      8.4231870543556902       2.532144198661733       29.08016066153802
   235   1      3.5731152904792678      2.3877152043133618      29.662328640928532
   236   2      2.2079605997788621      7.6332411513382254      29.462725819524458
   237   2      5.4012645576799585      4.9080783291914267      30.509149080201912
   238   1      1.3999510867037843      6.2563642465497979      29.262935766286112
   239   2      2.3780269000085781      1.4518468957634989      29.005081863060667
   240   2      2.6920443329365469      3.1649115147553601      30.773455369253011
   241   2      7.1579324299170786      8.8698382334349226      30.477076895019984
   242   2      9.0869513488719562      7.1532776095964135      30.684250413102038
   243   2      12.698858894098048      3.9907901994215331      30.113412918026441
   244   2    0.026633028800927966      9.7442226939829588      30.125195682196029
   245   2      4.6273011762342886      1.3309033380051238      30.431040754711361
   246   2      15.441872236800037      1.4480717225483621      29.085094191141433
   247   2      15.454944243777486       9.634878314082254      29.330002854054566
   248   1       18.57785710188325         9.0334542456542      30.485576524233547
   249   1       19.14056082138789      2.4321723814737508      30.332473204644206
   250   2      11.691645368076966      7.6778905059032221        29.9837027237878
   251   2      17.463612855625485      2.7063242637498952      30.496599093409497
   252   1      15.778373701438779      2.4968768575916691      30.250331462480965
   253   2      15.162493862374546      3.9452958405379235      29.966162600731661
   254   2      13.670771465384863      6.1070850500109275      29.322191014312942
   255   2      18.059011437201676      8.1553246573240461      29.180807166936003
   256   2      18.035676798494684       5.839354005337948      30.379672768011353
   257   2      10.015305732439217      4.4706033333088468      30.303661527265717
   258   1      9.0661530820479701      3.1589128693208854      30.444510890764622
   259   1       1.875399773957497      0.1421231100442511      33.449499943146947
   260   1      2.1134447393358489       9.979862068654306       32.99966677797795
   261   1      13.604368657579951      9.8277039723928681      31.763708183844923
   262   1      12.149589061696782      5.5059271033603387       33.13529794151377
   263   1      10.623681219923819      7.5912397939794207      31.232695449033159
   264   2      13.914623302994261      8.2146091218788229      31.972039150216361
   265   2      16.150682460476894      6.5997396783796169       32.13540353807992
   266   2      11.189281350215403      6.5918685697626422      32.371752070639943
   267   1      14.160510087659182     0.89030987241221893      32.653293210731505
   268   1      14.720542776096996      7.0931486446915359      32.822384833481358
   269   1      17.741641414138634      6.5745521221248477      31.814163861467566
   270   2      18.561937976342875      7.9854743863833075      31.766547606582122
   271   2      11.714084019903678      3.9336969115817455      32.394273242230881
   272   2      5.0623396537768537      4.9978563287792097       33.38605764453429
   273   1      18.805851137537186     0.33527039205349168      32.540080573765309
   274   2      18.577309527944863      5.8356718791863029      33.065143880788824
   275   1      11.386761865296274      3.5359788461959822       30.71989914969128
   276   2      12.721455913368827     0.47224539983677377      31.977111330044497
   277   2      1.1410083758136476      5.8103163219211265       30.90859825659162
   278   2      13.714399152298267      5.8026528883402442      33.104338632532418
   279   1      7.9999159212959281      2.6211379447720913      33.257621374183103
   280   2      1.6976043848589184      1.5620378645909005      32.741644601333434
   281   2      4.5834337223071682       8.629041222720339      30.577193006801533
   282   2        5.87322535565752       9.275611631437199      32.868105573538998
   283   2      2.1940899017683684      8.9981925083439247      31.670057500022669
   284   1      5.9776782051591528       8.497679250953972      31.460392524287908
   285   2      8.0729827309481177      1.0441841018396592      33.511639027146181
   286   1      1.9612548382440953      5.8708110001030702      32.323438447344728
   287   2      10.447086620483146      2.2405694165898971      30.989166618155625
   288   2       15.01557456762006      1.9208574860427166      31.667496392361425
   289   2      10.388510124917703      9.1575019287033719      31.681317661379726
   290   2      19.219850573957441      0.9026075172452741      31.107666323949758
   291   1      3.0891675895953452       8.021994766288298      30.776077634990923
   292   2    0.098143760849761563      3.2981535029625801      31.395622649718984
   293   2      3.5330455689721219      6.4196154767210896      31.715109027878697
   294   2      7.8318244836644819      3.0281238529284771      31.582541658890399
   295   2      6.1648424272974811      6.9122503252393752      31.994274565654155
   296   2       1.992761105828913      4.2919401679522151      32.902125749509999
   297   1      1.5841952127356262      3.0183310488910364      31.960206322805689
   298   1      5.2111122789547011      5.6763143849877942       31.92605190083815
   299   1      5.7576939069895641      4.3317997548475953      34.732712203318506
   300   1      2.3326274979102477      7.8357865928301349      34.821081760893208
   301   2      14.004466716998717      1.4830596070174906      34.236286746741911
   302   2      1.4781889653198921      9.1444364654922214      34.298053397345129
   303   2      9.2576263819049682      3.4747789642606524      33.831573473960773
   304   2      1.6551848225932635      6.7147622016783703      33.661021666005084
   305   2      3.9271212328635285      7.9342791142178513      34.341652622126603
   306   2      6.7076642878060344      3.2099844743839334      34.006777785255537
   307   1      4.7353085269135642      9.3862325730745653      34.089866102295787
   308   2      18.401030995586332      1.3485236124372555      33.799328899171783
   309   5      17.457267714066941      8.7947860647971314      34.185198846780125
   310   2      1.8214852408190443     0.24104474231103296      35.149234430473676
   311   2      11.532372186167946      2.2396344022929107      34.636275585174673
   312   2      11.370355270250558      4.9625615134070138      34.484030663092327
   313   1      10.840103555044038      3.5142573793558771      33.944296627792447
   314   2      15.184218322451795      7.5956604842634379      34.340364589190045
   315   1      17.683484434276934      2.3834727291690774      34.741112070730431
   316   1      16.606845802887957      7.9075713652614272      35.181125663874738
   317   2      17.760568941294267      3.8902721114607313       34.45654958194298
   318   1      18.419331495401849       5.442844308995153      34.642619322777144
   319   2      7.4675126528442926      8.2850617819709917      36.204204720896044
   320   1      13.027910193025891      1.8836597901928698      35.479062139741245
   321   2      5.8197241562557513      9.8992805890727951      38.054200965353331
   322   2      4.7727284233009879       3.372696609118389      35.663291092648237
   323   1       12.55569569360425      1.1376787364333441      38.279862038427325
   324   2      15.566484850610287      3.5040587557958269      37.646190545290693
   325   2      13.315751592212219      2.6867155315003775      38.796327743031249
   326   2      13.177265357167531      5.1488506262284801       38.06253300153611
   327   2      15.997189639648914     0.94549345056930578      38.286971258648393
   328   1      13.933394825768278       3.790200837147939      37.589246405851796
   329   2      16.417860913691289      8.7143228425669861       36.53007858107398
   330   1      16.635019870391744      2.2547322902013969      37.655947444878834
   331   1      11.105612073097699      8.8033639331347402      38.316175346224838
   332   1       12.16190482636984      6.1744029814223653       38.64871859982464
   333   5      17.917975009765446      2.5572028008335943      38.543958302048452
   334   2      12.818761174947809     0.80715181868465158       36.70880961231353
   335   2      3.4550613601689459      7.1287716911971133      38.450605581742124
   336   1      15.928120735760416      9.1791974127049798      38.042051457098196
   337   2      10.603795616664458      5.5879063664552575      38.735963425043671
   338   1      9.1379636218693694      6.5209260642691325      38.870402689200979
   339   1      1.9204092576005694      7.3044949039386298      37.929796334704207
   340   1       7.492974259492029      1.2996428900412391      38.878600634637138
   341   2      2.1021557507168307      7.8286538188219268      36.403689969118695
   342   2      13.273904198390225      3.3201768902493756      36.163434469293776
   343   1      6.9414339354625421      6.6345157651549025      36.559853677467416
   344   2     0.97944170781480899      5.9997483282266808      37.635726010502822
   345   1      5.9763220655910709      8.9216225834598184      36.710389689441413
   346   5      19.867842278745069      3.5796680377233674      37.401365670235933
   347   2      16.989884660399092      2.0028987476309026      36.069159125026388
   348   2      12.169365701974266      7.6764192251002372      37.921586816974632
   349   2      19.798144801373869      5.2177425405635836      35.450125911870089
   350   2      8.1191938005679631       6.143143181743409       37.62718284520156
   351   2       5.376271019830547      9.8017642177561779      35.477464604046659
   352   2      17.333627016618841      6.4606348034561112       35.26629541586999
   353   1     0.74323595867981562      4.7879119228721585       36.59996384315599
   354   5      7.6712898725163559      2.3713160935955955      37.687884944223995
   355   2      11.080471397594954      0.9688152635737135      38.928651873968406
   356   2      2.1753500649675845      4.1535556706604844      35.973501905500562
   357   2      6.6526861804991588      5.3836222144317478      35.615385585660512
   358   1      3.5170985373705559      3.5395769105394463      36.718038636596226
   359   5      4.1751162228673753      4.5555812882401314      37.773912014730854