(written by ASE)

915 atoms
5 atom types

0.0                      20  xlo xhi
0.0                      20  ylo yhi
0.0                     120  zlo zhi

Atoms # atomic

     1   3      19.049106608038748      6.9663666069592587      20.345913907810633
     2   5      17.457267714066941      8.7947860647971314     0.53097487006125732
     3   5      17.917975009765446      2.5572028008335943      4.8897343253295844
     4   5      19.867842278745069      3.5796680377233674      3.7471416935170652
     5   5      7.6712898725163559      2.3713160935955955      4.0336609675051278
     6   5      4.1751162228673753      4.5555812882401314      4.1196880380119865
     7   5      3.9751065383070361     0.91910371655655132      6.1703263429574449
     8   5      9.0485255954769581       1.589768117619148      9.7092968873831254
     9   5      5.6701118314413765      2.1169845791843813      8.7604202694594022
    10   5     0.47040120181712608       2.796293357453838      8.6554816162656749
    11   5      7.5038988151711736      3.7339339502348565      7.5864269346360231
    12   5      3.1112708435869028      4.2922160742593682      8.7069667670628235
    13   5      2.5028830470035168      5.9607295425013085      11.270219000667282
    14   5      2.4679661443366605      4.9767015305141209      13.871437723484917
    15   5      1.2575874813445342       8.950934142118335       15.09770767988185
    16   5     0.48444698759934962     0.50475010511584217      13.188946303601249
    17   5      7.2341033960699317     0.20484983569003082      17.881011747753845
    18   5      13.363794873677755      3.5184745940558093      17.205257027822618
    19   5      18.529079375936412      7.2596024040116989      17.169533086263719
    20   5      4.3631678646784309      4.7063545288092277      22.510824062674644
    21   5       13.60045482742896      8.5027775089759476      21.637960955933131
    22   5      5.2544466005801995      3.3255977301509025      20.884184237481996
    23   5      8.2595120685585695      8.0717907167248857      22.198795286872965
    24   5      2.6934421248645184       8.208720977916661      18.677401352859015
    25   5      4.5491415385924414      6.0062891580053712       20.09463318879822
    26   5      1.8958910738894643      2.2062616775396573      23.273142544391469
    27   5      17.742566144625872      3.2193782022369626      23.477345112449477
    28   5       11.30385864417811      8.5289974930238106      22.916587110945656
    29   5      2.2607773087254799        7.49924803403764      23.929608261406969
    30   5      16.658466911080708      8.1560195332930459      26.256410192569177
    31   5      3.0652148475492567      2.1355005986711904      26.030666817443993
    32   5       19.67847056333142      8.3513140509610935      28.178712542780573
    33   5      15.210697907895296      9.3618746455291166      29.528381741049451
    34   5      2.9630627315171383      5.2937411131319321      33.023551579167176
    35   5       5.348506319251972        7.43682774588485      32.964945120438699
    36   5      6.7643918773386158      4.6853869276633002      32.200070037186734
    37   5     0.93605802579320607       2.599934676365518      34.506243536632866
    38   5      15.802273675313947      9.7837054287543399      32.016124694122055
    39   5      11.038096816582916      2.8606814675834045      33.214293154877666
    40   5      9.1485477844150793        4.70290052531786      31.510029203968486
    41   5      1.7746515576820565       1.260759641186785      31.572302885962955
    42   5      7.9893523105205499      2.9649870112189185      34.426794419514437
    43   5      15.698924584764066      3.8071423928385215      34.352562148788323
    44   5      18.001214111014708      6.7480169094429341      32.518997743147793
    45   5      9.6451620607929609      2.7671479272556674       36.36195020905582
    46   5      12.420693941809173      3.3565251632062743      41.722951149795094
    47   5     0.78613270363317445      1.2723033132456041      39.445962342557365
    48   5      16.094513081286291      2.3078994742595436      38.316108233158474
    49   5      18.814638457382966      6.5338483774949552      37.349479503088787
    50   5      5.8862089181214463      8.3857805504492298       38.87029102407368
    51   5     0.33557569588449293      3.2337306689107601      43.942790986207839
    52   5     0.56724404179250432      7.1700454022407465      43.820509496417159
    53   5      3.9641708584677158       6.920313455155255      45.059263024304087
    54   5      14.229501440906285      7.4347858593126679      45.818552955138884
    55   5      18.340704485073989      17.635355384144976     0.28336321537746301
    56   5      11.616052748603661      18.360087154748285      1.2173096183855847
    57   5      19.180158229065228      16.980349032526401      2.3227055376078312
    58   5       4.994845684483991      17.007842263215551      6.5374774680932362
    59   5      9.0080242170678524      11.796447015031502      6.7942030314709001
    60   5      8.0484492759071848        18.5432646110769      8.3245617178254818
    61   5       3.957160799147128      18.211444579173936      11.929137090157184
    62   5      12.037015441329643      19.351127355672137      15.339724090333284
    63   5      7.7561938216548807      13.040148837938787      15.324768985554769
    64   5      12.666988435572026      13.572571761077503      14.269486828796296
    65   5      6.6818154477209646      17.886902700698769      15.844276147828346
    66   5        19.2624918448636      17.791772491424442      14.791106913133738
    67   5      2.5205509190649762      14.512805341573678      13.716870951920917
    68   5      4.0460776518839978      11.986206997458238      17.533454865610068
    69   5      5.9936155818709249      15.543489048221335      18.465802464340221
    70   5      9.7084466228774779      10.416385896322932      18.607629073208535
    71   5      9.2489357154062386      17.447917387139604      22.113896395326584
    72   5      19.012824969014414      17.953123330802761      18.871830526916362
    73   5       1.041079479228767      17.422806921755722      25.481393794383763
    74   5        12.0014103320659      12.322033684928941      23.504810835601681
    75   5      18.699869638540971      10.197808285281884      23.447300658085901
    76   5      9.1638980076383962      17.588063469781552      24.840197576649786
    77   5      2.6498106650091406      10.236764102591021      26.607838740860977
    78   5      7.2028071023189346      12.442227473135967      27.827068271270441
    79   5      3.8212244148003842      15.626430796161497      29.619523985996508
    80   5     0.38174849059275595      14.763531481091958      27.147196627822233
    81   5      11.381649021388561      14.914960079674257      28.257812441823425
    82   5      12.880477455474868      11.715407368251423      26.297735704714981
    83   5     0.78553371432852681      17.885487020565247      32.146181624045397
    84   5      8.6910170399580053       19.04898803620079      33.255698674287515
    85   5        16.8053137181655      19.677567224244171      31.600509029336649
    86   5      13.359414552328854      18.474075569939643      31.743388113889935
    87   5      9.8652850036142787      11.398350573669447      33.786601326601541
    88   5       13.66019056846892      16.097924154502021      30.250956373203053
    89   5      3.3760257947614356      19.916584975762245      38.394472134438473
    90   5      3.8572541613003097      19.211155071821008      36.000066253118632
    91   5      13.344930118180873      12.313158710262647      35.063598674022032
    92   5        15.1821941855275      16.885331022652142      36.772698338872232
    93   5       18.76501651311607      10.228903165313723      39.140406749902795
    94   5      9.6983708411134941      10.085716643022893      45.892978804465699
    95   5      10.239777115975659      13.934777609094066      44.826413931493903
    96   5      15.221300371616497      13.068427313753654      39.758125529400132
    97   5      16.056674483873323      11.898125012623852      37.536870895712838
    98   5      16.313861656214701      14.411073430742636      37.810998024242224
    99   5      11.246549627664358      18.327639766570098      37.360748301794331
   100   5      17.259803076136151      17.030564046364795      40.200482415858517
   101   5      13.122487967655545      12.575907178366617      41.495859637296419
   102   5      7.8161406260146347      11.797799934973428      38.386202461507295
   103   5      5.2640845020039571      13.211910755707496      37.287539569681798
   104   5      6.8527594123330084      19.052235143625367      39.932918149001608
   105   2      14.004466716998717      1.4830596070174906     0.58206277002304319
   106   2      1.4781889653198921      9.1444364654922214     0.64382942062626114
   107   2      9.2576263819049682      3.4747789642606524     0.17734949724190585
   108   2      1.6551848225932635      6.7147622016783703   0.0067976892862162686
   109   2      3.9271212328635285      7.9342791142178513     0.68742864540773496
   110   2      6.7076642878060344      3.2099844743839334     0.35255380853666907
   111   2      18.401030995586332      1.3485236124372555     0.14510492245291573
   112   2      1.8214852408190443     0.24104474231103296      1.4950104537548086
   113   2      11.532372186167946      2.2396344022929107     0.98205160845580508
   114   2      11.370355270250558      4.9625615134070138       0.829806686373459
   115   2      15.184218322451795      7.5956604842634379     0.68614061247117775
   116   2      17.760568941294267      3.8902721114607313     0.80232560522411234
   117   2      7.4675126528442926      8.2850617819709917      2.5499807441771765
   118   2      5.8197241562557513      9.8992805890727951      4.3999769886344637
   119   2      4.7727284233009879       3.372696609118389      2.0090671159293692
   120   2      15.566484850610287      3.5040587557958269      3.9919665685718257
   121   2      13.315751592212219      2.6867155315003775      5.1421037663123812
   122   2      13.177265357167531      5.1488506262284801      4.4083090248172425
   123   2      15.997189639648914     0.94549345056930578      4.6327472819295252
   124   2      16.417860913691289      8.7143228425669861      2.8758546043551121
   125   2      12.818761174947809     0.80715181868465158      3.0545856355946626
   126   2      3.4550613601689459      7.1287716911971133      4.7963816050232566
   127   2      10.603795616664458      5.5879063664552575      5.0817394483248037
   128   2      2.1021557507168307      7.8286538188219268       2.749465992399827
   129   2      13.273904198390225      3.3201768902493756      2.5092104925749084
   130   2     0.97944170781480899      5.9997483282266808      3.9815020337839542
   131   2      16.989884660399092      2.0028987476309026      2.4149351483075208
   132   2      12.169365701974266      7.6764192251002372       4.267362840255764
   133   2      19.798144801373869      5.2177425405635836      1.7959019351512211
   134   2      8.1191938005679631       6.143143181743409      3.9729588684826922
   135   2       5.376271019830547      9.8017642177561779      1.8232406273277917
   136   2      17.333627016618841      6.4606348034561112      1.6120714391511228
   137   2      11.080471397594954      0.9688152635737135       5.274427897249538
   138   2      2.1753500649675845      4.1535556706604844      2.3192779287816947
   139   2      6.6526861804991588      5.3836222144317478      1.9611616089416444
   140   2      3.0749944459282785      2.1163890787178303      3.9278284895897713
   141   2      5.5243721352483091      7.3234330237326395      3.4098605898269625
   142   2      9.7013434150486226      8.0419183590010839      5.0311035810148681
   143   2      8.3692557774989105      6.3219596042407922       6.611756503532618
   144   2      3.9892061090161599        8.75178064815446      6.9332510206377407
   145   2      1.5475680060826593      7.9913740980952985      5.7991185641730709
   146   2      6.2159907576994566      1.6623679109766309      6.2172354487016008
   147   2      2.6146350278915653      3.3296737823971601      6.1875660495591305
   148   2      10.511588996418073      2.6555608679231399      7.2840220125996282
   149   2      11.893111951731077      9.1950357726059337      6.1010425400114627
   150   2      16.257847506322378      8.3955144896884484      5.6879170806676669
   151   2      12.576565246430391      6.7886300895748173      6.7374563229074482
   152   2      15.322050512246392      1.8981978938892974      7.2478543110934197
   153   2      13.477005141966957     0.38832699422477635      5.7707801285816984
   154   2      5.0823192000771558      4.0092675263818283      7.0308511601660797
   155   2      3.3565617742787901      6.0399857931610779      7.0443315887100511
   156   2      1.4180768272914701     0.77732903537628406      6.0360965324194069
   157   2      6.5267733958582514      8.3074052863468815      7.1049566514193003
   158   2      8.7668454168220507      1.2910863451912526      6.2746126767077897
   159   2      4.8262347290064564      7.2572009295786799      10.584787349979209
   160   2      12.905837011675915      2.1991028101636232      7.9116884120460753
   161   2      9.6587275126075163      8.9448699870835267      10.713770023311127
   162   2      11.297195954592409      3.0829361366968722      9.7770846324172211
   163   2      14.715788427354401      3.6101974997020845      10.357938402276829
   164   2      16.339649890489511      1.6606704659199623      9.4698123398765688
   165   2      13.897081809930169      5.9965034627458467      9.3146641749379242
   166   2      14.870428881119228      9.2622260960250564      10.827020282701881
   167   2      2.4934498976359407      8.3842240026994581      10.140359355366456
   168   2      12.330421121969428      4.6544976159799747      7.7967962713832719
   169   2       11.42915622587476       8.127115309248401       8.771218291622759
   170   2      13.806540815505901      8.9886717083630234      8.1216861553716484
   171   2      5.2486334517411128      9.8206496151054221      9.0897854192701004
   172   2      8.9055299393346683       4.126665947438549      10.349897955408942
   173   2      1.8931266818934294     0.49221579764788054        8.68531419098003
   174   2      8.7848883435810574      8.1406178412871562      8.5461408015965077
   175   2     0.26156965272182553      1.3558278489982747      10.767588657219179
   176   2      6.6398650971421525      6.5384707705945777      8.6954633490227309
   177   2      7.2050328746651227      8.0344928399191691      10.992644316925421
   178   2      4.6422365154321907      9.7699206762641619      11.951500522305636
   179   2      17.339534810928065      3.6733564561746812       11.17828544789753
   180   2       6.625539845216295      5.3280417006797585       11.10742070262166
   181   2      9.1124193547083685      6.3349910086227208      11.806719129745623
   182   2      15.904085242787929       1.966102946318885      12.284624041221377
   183   2      10.122321581794955      2.4052896465889009       11.96916541502199
   184   2       13.73230050919074      5.9519843039116891      11.842959183928969
   185   2     0.90186214010044119      9.9509372215048781      11.511504131375844
   186   2      4.3176720001805595      3.1425955223610491      16.098901635564673
   187   2      18.588486570474274      2.1290413576092564      12.816437725171355
   188   2      1.0553227954514615      3.0784817792733032      12.645592222431546
   189   2      3.4979193950699838      7.7755163068689779      12.808603370520572
   190   2      2.6893902616691632     0.59233546430044903      16.111097507333007
   191   2      5.6934419673130963      5.7215436749649946      16.297534060495408
   192   2      6.8446960723828321     0.27670888244113129      14.921012252656489
   193   2      16.232382473012578     0.90393302811216825      15.681064179235051
   194   2      11.776130360426265       6.333375509474175      13.480332181194662
   195   2      16.939239657603103      4.0227427972713086      13.827078070506069
   196   2      15.815712975759325      3.3501265461892582      16.412774894329701
   197   2      11.472828066088303      1.6285608096493187      16.280148808534705
   198   2      13.713335166596591      1.6846879949388471      15.358906583359399
   199   2      11.700212266228396      1.0260349213677566      13.655551855893989
   200   2      16.697584014479816      6.0390920565423523      15.500526890693251
   201   2      17.830138947589525      8.5445110220364899      14.893403212375731
   202   2      13.805185786588563      5.3003842723112324      14.358486873037158
   203   2      14.018047970954113      8.2204003107202634      13.032537979300244
   204   2      13.736438493714747       7.532333689747631      15.328348573224979
   205   2       11.29791817945349      3.6517079919132778      13.970623155363747
   206   2      11.978085317244044      5.1817074178931151      16.047914992104666
   207   2      9.2619583910756003      1.8172072403928718      14.521503516660637
   208   2      3.2139983834163544      2.3143182173532968      13.844339340156345
   209   2      5.5795166657614539      8.7851790250650694      14.340564100197184
   210   2       16.10837112737088      9.9071341403854394      13.377469251675052
   211   2      7.0238151286842987      3.5757300735054098      15.557227843545576
   212   2      8.7347441050951389      8.2503826483754672      13.242263113281645
   213   2      8.0496491719606418      4.0595278831506114      12.899392193913464
   214   2      7.5894714661638671      6.1364152549948967      14.243030684335004
   215   2      1.6115495918759615       3.054003850566509      15.423387522759874
   216   2      7.7592090208447537      7.9537415319299587      15.899926595266571
   217   2      10.082228656004693      7.0366155798489238      15.224270454766021
   218   2       7.485442275709798      6.2790795673744633      18.265207801347962
   219   2      9.5844167853866598      5.0919625660471599      17.243600778948327
   220   2      5.6956817037651621      3.8962049494869175      18.128407066288645
   221   2      16.005221077801657      8.0016590515599066      16.653611021061913
   222   2      14.666835285574972      1.8043151592986406      18.157571378505395
   223   2      11.308657317528981      7.1589894074197744      17.685964479533162
   224   2      14.144949606661443      6.4764499235907635      17.871097061021281
   225   2      9.4530242418913808      2.1310628916702838      18.041041880752189
   226   2      5.7921032167181865      8.2654401299440234       17.15337258077875
   227   2      19.852003422225675      1.0437383344020752      22.012083055830651
   228   2       17.92787067778734      7.3811529249243968      20.275357981939962
   229   2      4.7726525254686818      9.7537491396533422      19.092714043658368
   230   2      12.412002474816665      5.9970570797578073      19.786635909086314
   231   2      11.311516583987313      8.3660776508631116      20.239932191186718
   232   2      13.838561374677258      1.2841810083239846      20.936889857581491
   233   2      8.8380957462314811     0.68264490278774681      19.913841296736152
   234   2      2.3707252335488112      5.7436329068121807      21.379029491942227
   235   2      4.1903832145848305      1.9435847594446642       19.00469484254203
   236   2      4.5574618451275937      7.2711267222335607      22.362357932171548
   237   2      9.7856993456372567      6.0461874952080308      19.707639734597386
   238   2      2.2974105539103373      1.5394777847317764      20.881396573005425
   239   2      19.951084657646902      6.1764266519356514      20.607763677348686
   240   2      6.8433563756931459      2.0142843834397066      19.492628779788518
   241   2      3.2985714911443642      9.2866284441123135      21.143632135265769
   242   2      12.148522473444736      1.6356492769061193      18.826611890682337
   243   2      6.1317983423185929       9.281981207685492      21.291546961732124
   244   2      8.5004486585483825      3.8659970159565615      19.509187016544395
   245   2     0.55417841709055526      3.5895473411854222      21.660712528758509
   246   2     0.33456372985820804      5.9498365012274315      23.041052687001198
   247   2      4.8412266635993877      9.6251230998576141       23.62762226303807
   248   2      6.6410782893371598       9.358711300232013      25.779251922678114
   249   2      15.849553205799413     0.81813610776363288      24.502953612082216
   250   2      18.195986178987734      6.1444674501122538      25.763029728264939
   251   2      13.366943294070941     0.97432070765290146      23.637940446681398
   252   2      18.377161770053398      1.1822121186768282      25.043521009103543
   253   2      19.461113040922907      3.7410224751889496      25.446016756655759
   254   2      14.676991732292512      3.2886945671085979      24.488831052860178
   255   2      19.861672274534694      8.1583553697019831      24.537193261715522
   256   2     0.83530698409978954      5.8752308097791737      25.740679584297723
   257   2     0.58632775289875771      1.3828410643575817      26.535631937931015
   258   2      4.3250524044762004      9.7819898908395704      29.509500601689879
   259   2      2.5621566265349935    0.016143245349092897       27.51185590738087
   260   2      9.0050294506027679      9.2701544234793616      26.980067500056464
   261   2      6.7284490322602082      9.4949365079102996      28.453178684238559
   262   2      7.2849774893434773      7.1826178976753692      27.249512992062108
   263   2       15.55484669195236       5.808171527716758      25.687744256529584
   264   2      5.5102353092943712      7.4451599124706958      29.272651035846444
   265   2     0.72368673477786849      1.5798499421282453      29.203455035073581
   266   2      7.4869057292465948      5.5681247065077475      29.649980509281093
   267   2      10.839363971524614      9.3027872120718165      28.890456498704502
   268   2        14.5538562056141      3.7348758868299168      27.147641726762288
   269   2      15.867202699522629      1.9716970973207959      28.505779863179342
   270   2      17.255861439532378      4.0210826920401121      29.374755441569505
   271   2      14.186526528514118      1.3406513891713134      26.273389616184332
   272   2      16.974697972101886      6.3345932482243317      28.158084375000684
   273   2      10.682396216617256      2.0735068834228185      28.685022791962865
   274   2      18.374685872921194      2.1254346514008624      27.930715177818925
   275   2      16.884533135916286      3.3710396801137099      26.007575340594869
   276   2      13.255382875675556      1.9343439262343176      28.649404065746111
   277   2      19.276438264395239      4.9491064294724518      27.771084278218204
   278   2     0.36783794462123964      7.5557202992143822      31.571789932502554
   279   2      11.825540049619772    0.085978955170086302      30.168449313827466
   280   2      6.4258800449492357       9.043871901973036      31.127052310693699
   281   2      7.9203228206966916      6.9428539963842804      31.897008998795371
   282   2      2.4305559638899084      9.8301658599373898      34.812119267514277
   283   2      8.9933836620592622      8.7236740067479897      30.483796460326175
   284   2     0.32784324189337799      9.8466202962911371      30.240092335424684
   285   2      12.230003751844469      2.6010436628695874      30.846592325629672
   286   2       15.86395341828503      1.9090469323696946      32.435912774509234
   287   2     0.78955555801507316      9.9611844471455733      32.793202387131473
   288   2      2.6667373660825251      9.1274734682776746      31.244536832286371
   289   2      8.5169761745213464      9.3696009552013333      32.870100885402564
   290   2      13.590075871643645       2.825876601522662      33.143946441314498
   291   2      12.156136124841598     0.60682139294336535      32.740475781980422
   292   2      17.596356030432457       1.910656472325446      30.585868258633056
   293   2      13.364998658025993      9.6433385543246128      31.297118041551713
   294   2      18.939231271348273      5.9059967566608229       30.18237514470097
   295   2      18.426471380264953      1.1101911509403417      33.031887850361926
   296   2      11.195475209696964      9.1027250252075813      33.003118983097892
   297   2      18.230997539904681      8.4274563563167781      30.323972873578988
   298   2      13.961016564346613    0.066641497292447838      41.425498365594464
   299   2      8.5420689390857643      5.1072230818450102      35.983996265553571
   300   2      7.0719230930644761      3.0727957754467647      36.816625345083608
   301   2      2.5593608091595943      1.4054987285500042      36.216121081455697
   302   2      2.3311481153544245      6.4564832985383358      35.394577954179312
   303   2      15.037117324488307      1.2732501977785138      34.937041526712562
   304   2      4.8099275627980731      5.8286220666307784      34.891473921258694
   305   2      7.0512560413753356      7.1273471601084548      35.059198528713637
   306   2      3.1277022398551169      3.8364726135483949      35.177533260470824
   307   2      3.1153980671772583       8.453907841313054      37.027307198426826
   308   2       4.838401331154647        8.57382428049306      35.074333778808821
   309   2      17.630711881825327      1.1880987851605602      35.748499917990671
   310   2      1.0953075710786693      3.6532952033808641      36.779438619092943
   311   2       11.29817401651829     0.47905652959119421      41.883594073123874
   312   2      15.899330750885589      1.1978021949273432      42.717062696554365
   313   2      11.511350853790699      5.0884795906436961      39.990868213715245
   314   2      18.292084040202269      2.0928709756676223      39.639446232843483
   315   2      10.941276476785033      2.4433370672780939      39.882499955687308
   316   2      14.816925607011521      8.7912880845242434      40.415802106692482
   317   2      10.972592781486179      6.9126883200943832      41.802899991611611
   318   2      12.641647244344247      8.9254372178377093      41.969264055278956
   319   2      17.290081048789077      9.4408905728912451      41.220046140579839
   320   2      16.113884754484403      3.0923918151797558      40.852558121924133
   321   2      9.7970975136821181      4.1147542774288546      41.775863627996557
   322   2      19.950113427627592      7.0633520037373998      39.676186845024148
   323   2       10.98769506113355      9.0553288149105047      37.788294008764183
   324   2      9.9599058874079525       9.234710976432412      41.538347276403641
   325   2       9.991893047894175      7.1232382114993174      39.199514321466921
   326   2      12.599270706037615      7.5069484656662864      39.820690898665674
   327   2      7.0295431400151553      1.3548275192751322      38.845214881395975
   328   2      9.1691932873376221     0.39298901406912751      40.082245569605391
   329   2      16.221362143938173     0.46652325705851211      40.183545003032435
   330   2      4.6890137565253198      6.0212375422115016       39.01312632948958
   331   2      0.3236848134522155      3.8593107933160029      39.333914023576284
   332   2      7.6710425380278933      3.3446477701427533      43.406469296188789
   333   2      8.5665981557703397      9.2568966850096359       38.68761977959619
   334   2      5.0754528983252714      1.3518146256999584      36.997791747172869
   335   2        6.93488623538288       6.302518918017781      37.735515783190735
   336   2       9.083325267624522      7.5193344576837839      36.701225002118292
   337   2      15.763156757955317      9.6959471924082195      45.921540928544772
   338   2      14.323666907986663      8.7025841865166793      48.061721751699423
   339   2      10.767345443462986       8.817509773676159      43.900919045981894
   340   2      13.087054131856339      9.8546090875994263      45.920596602195403
   341   2      2.7705852519061249       4.453502895397766      38.813134301560353
   342   2      5.1436716000488589      3.3014510240765258      38.687801109236375
   343   2     0.91917770540527077      5.1172910164985916      42.128808239911578
   344   2      2.5158851245853961      2.9842728337199382      42.608301611856263
   345   2      7.3501389308726726       8.572857306405993      42.068278702716682
   346   2      4.1894658884565041      4.7788262791221303      43.547983098658818
   347   2      8.0091126525362117      6.0148172062114078      42.716329539982425
   348   2      5.5316387744225972      6.9264375948881582       42.94501808621277
   349   2      2.8972072908938493      6.8646243766399104      42.649165618146029
   350   2      5.2433878789885338      2.5718598411569236      42.652960542520546
   351   2      7.2450773076340358      1.2693349216600336      41.509358690784083
   352   2      4.1568192803013924      4.3472409563596068      40.972668656550496
   353   2    0.068027612645141844      2.5387961686275147       41.58637785298933
   354   2      7.2231199075509709        3.94914888383384      41.114301258824995
   355   2      6.7122025729056922      6.5366616264247055      40.452779642829654
   356   2      1.1922172460796991       17.64127584441805     0.97141300055098156
   357   2      3.4382002087137717        15.1908176510626     0.29738202709780381
   358   2      4.4269424245807452      12.885069790921905     0.50270852104276997
   359   2       1.596975415406493      13.401945165533906    0.061372381019246802