LAMMPS data file via write_data, version 2 Aug 2023, timestep = 480, units = metal

793 atoms
5 atom types

0 14.142135 xlo xhi
0 14.142135 ylo yhi
0 200 zlo zhi
0 0 0 xy xz yz

Masses

1 28.0855
2 15.999
3 12.011
4 1.00784
5 18.998

Atoms # atomic

527 2 0.9563036589505308 0.2699669162601824 0.574921675430278 -5 -1 0
353 2 0.14709744198425118 2.6691566954801513 0.25030553372811637 -6 -1 0
435 2 2.44775808087085 1.7921829825600994 2.2718119380387614 -5 -1 0
450 1 3.564460167444381 1.1952722302300094 1.2286473331934047 -6 -1 0
481 2 4.956705507850386 1.9516432120326077 1.6929366392249494 -5 -2 0
400 1 5.512172041162375 2.8309537307212165 2.961564933763906 -6 -2 0
427 2 7.481791556204602 0.3258757318138111 1.8686113540656217 -6 -1 0
444 1 8.677407796616189 0.9962825046321662 0.9478958364033051 -5 -1 0
513 2 8.896521690065537 2.50352606882149 1.5566097088487132 -5 -1 0
449 2 10.064456100115624 0.2055537563976813 1.3547193105944655 -6 -1 0
509 1 7.259594091132582 0.4547524043603608 3.4884001010729158 -5 -1 0
462 1 13.867314901422045 1.3174398807221124 0.9650841374926203 -6 -1 0
573 2 13.41199007827255 1.7971855603127027 2.4865089055350027 -6 -1 0
483 2 12.45032740498117 0.3415346947486243 0.4845689052670997 -6 -1 0
447 1 12.731038411737373 3.3112158393076063 2.5700706874698427 -6 -1 0
479 2 11.426532268227813 3.4501102373864385 1.5774078334028618 -6 -2 0
407 2 1.5014098408955552 6.482356060072792 2.314577188622344 -5 -1 0
396 1 0.7631229889546376 5.299446927430804 3.1533973280036993 -5 -1 0
501 2 1.7624102479868688 4.086749166546637 3.531249144416727 -5 -1 0
457 2 4.412515739857927 5.533326617631237 1.3739715706425155 -5 -1 0
514 1 5.5686393283082625 5.710999965735967 2.4618682815221202 -5 -1 0
422 2 6.3236671729388 4.185082408267366 2.6029122240058338 -5 -2 0
484 2 6.895592750275054 6.604614863889981 1.820135196135768 -5 -2 0
411 1 7.542529798815806 5.65528402397637 0.5165767516200795 -6 -2 0
460 2 9.019692700313827 5.046998146573523 0.8748570885128923 -5 -1 0
520 1 9.790387988018622 3.8538420755553466 1.794632613931707 -6 -1 0
471 2 9.710063862210188 4.226019362241659 3.39943592716664 -5 -1 0
477 2 13.662071395929265 4.629762268712404 2.3447748868337137 -6 -2 0
458 2 1.0331768421051637 9.112650398449988 2.247209182010745 -5 -1 0
415 1 1.934752171032359 7.901539688813292 1.6213773889300385 -5 -2 0
524 2 3.475247039344724 8.346985077092322 1.8709925136211187 -5 -1 0
339 2 1.5992268269955034 8.207683128272553 0.0902575324706869 -5 -2 0
510 1 4.215139903503461 9.682258415013196 2.4785097757454513 -5 -1 0
498 2 5.794419220329763 9.451178079533374 2.8340170036396333 -6 -2 0
425 2 8.336539448326038 9.614932932514405 1.9073402346506292 -6 -2 0
414 1 8.617342391905169 9.709520049262018 0.2842910860725713 -5 -2 0
382 2 10.188651210874513 9.312555619562291 0.058403703820515664 -6 -1 0
487 1 7.387154663532525 9.502004998887237 3.2299008486744567 -5 -2 0
463 2 12.776962889241078 10.247324125237014 2.534593314185702 -5 -1 0
424 1 14.051470385493532 9.582420569381505 3.2778064566943645 -5 -2 0
402 1 0.49435399546042613 12.847208990463926 0.5428998990936139 -5 -2 0
331 2 1.8887965914854643 12.005760390521537 0.5954681084306325 -5 -2 0
347 1 3.186753367661621 12.339163623143154 1.605506495847591 -5 -2 0
406 2 2.5090751037184527 12.422345651077842 3.133081246880857 -6 -2 0
418 2 3.859936319286346 13.69113997784823 1.3596960706052266 -5 -2 0
408 2 4.154186393556487 11.051476516546566 1.5341072745651343 -5 -2 0
521 2 13.880002308998398 12.60275574515316 1.9646414204555058 -6 -1 0
502 1 11.185203076175592 13.42772165280311 0.7023816481363474 -6 -2 0
403 2 11.256650010099458 12.221683469776986 1.7709173723322102 -6 -2 0
409 1 12.586187814291877 11.846702185563327 2.642272509589673 -6 -2 0
420 1 2.625667271858688 2.7471377912816535 3.6174060830391133 -5 -1 0
564 2 2.2371468275123547 1.8469548560415572 4.916238960954225 -5 -1 0
515 1 3.2945598657623156 1.152797419461435 5.949677940128573 -5 -1 0
428 2 4.137378278136181 0.036129622959112574 5.0961754664074626 -6 -1 0
574 2 4.180227690841643 3.2057652838633173 3.8087331448113617 -5 -1 0
576 2 4.289607878775295 2.286045557385583 6.547320615077049 -5 -1 0
329 2 6.499388483824859 1.8576926471534903 3.8201518389854834 -6 -2 0
426 2 8.72825201276952 0.4929780934035786 4.196810516099699 -6 -1 0
506 1 9.655060203156399 0.8790298899617235 5.4952325964160025 -6 -1 0
476 2 10.093572880113351 2.4582100944379417 5.437477926721607 -6 -1 0
416 2 8.776771045420238 0.5822106856985033 6.841414219888507 -5 -1 0
413 2 12.158273662957114 3.372228231179308 4.106376172284831 -6 -2 0
437 2 0.20757279026114342 5.897377386213704 4.58795924497573 -5 -2 0
507 2 5.222794728242624 6.196208217194376 4.032536036205337 -5 -1 0
570 1 5.217789167662369 6.242027100280215 5.679019379483276 -5 -1 0
598 2 5.39936764349722 4.7391998460920535 6.33295888377304 -5 -1 0
488 2 3.7948857942158627 6.7539299516796385 6.3647382182188394 -5 -2 0
451 2 9.027990371430652 6.868462727134985 6.1648769147230835 -6 -1 0
525 1 10.697672805793527 3.7974824990970633 4.665709021118745 -6 -1 0
578 1 10.273912225939098 6.04685527060135 6.80394506179744 -6 -1 0
582 2 10.91023261416022 5.142183136248753 5.587738425399864 -6 -1 0
467 1 0.20961878296986233 7.4223725385605634 5.1266495767886795 -5 -2 0
345 2 1.763459135014877 7.963636838412085 5.1901886693586965 -5 -2 0
593 1 2.79484131648904 8.04670050730925 6.463131873175063 -5 -1 0
489 2 3.344255004360115 10.062679827073843 3.810553145843518 -5 -2 0
417 2 3.8432342668204393 9.284025171285224 6.312062363677148 -5 -2 0
496 2 6.4398916001390845 7.252209517049823 6.1683048658361574 -6 -1 0
405 2 7.8035935495338 8.164871830778987 4.0959430182182555 -6 -2 0
491 1 7.872881720560352 7.926523070919419 5.718858023164714 -5 -2 0
480 2 8.297860736093247 9.406473944423828 6.3558956809652205 -5 -2 0
493 2 13.466207131418356 8.337783983522685 4.11832001960209 -6 -1 0
517 2 13.689631153959422 7.69293937619833 6.583299331922393 -6 -1 0
443 2 0.6696315986630529 10.724046527491408 4.184068813344823 -5 -2 0
528 1 2.2337583378359778 11.205568473069428 4.190666492291764 -5 -1 0
365 2 2.5047334861815775 11.54755265333554 5.7746911031757735 -5 -2 0
373 2 6.250208408522632 13.965351765792335 6.602559593674704 -5 -2 0
559 2 5.081007859084041 11.712259576648176 5.856526665938691 -6 -2 0
430 1 5.436377627800963 13.254842038701563 5.387177617154831 -6 -2 0
551 1 3.8060000840124957 10.900376771052168 6.518432365160197 -5 -2 0
421 2 6.366107252339632 13.32467250200545 4.027430037269384 -5 -2 0
581 2 7.762902249898388 10.790397064057371 4.213754830566776 -6 -1 0
464 1 8.573808643182694 10.87913219290495 5.647563070382138 -6 -2 0
526 2 8.058369853475929 12.075803118037777 6.636484398194904 -6 -1 0
474 2 10.150634424929606 11.281794714810646 5.364710205340904 -6 -2 0
401 2 10.885686447328771 13.944637914985416 5.540961828632895 -6 -2 0
344 2 12.340489137106644 12.309173428515852 4.1711283592052455 -6 -2 0
503 1 11.375497492394096 12.381276473761373 5.484920828544325 -6 -2 0
603 2 12.258474662104396 11.983544171969376 6.795975286263692 -6 -2 0
475 2 2.5485873160421777 0.3197040376113609 7.116837800244586 -5 -1 0
512 2 0.08141124420643937 1.4425296419305254 7.066030856785161 -5 -1 0
454 1 0.27910527333442087 2.330989389785651 8.516556176072978 -5 -1 0
508 1 1.0243419056908782 0.2386191430623994 7.702990580500706 -5 -1 0
482 2 0.9350947700820408 0.8996256899387507 9.221034738977625 -5 -1 0
465 2 6.456675289899629 2.8780892386937693 7.925932537752077 -6 -1 0
565 1 7.059108898079258 3.0304377758522087 9.430562295281316 -6 -1 0
548 2 5.817673985659314 3.264690148466243 10.450547072896438 -6 -1 0
588 2 7.8653869373256216 1.7912060899989966 10.122128736051806 -6 -1 0
597 2 10.307301592289761 2.5661358358862607 9.1101117244031 -5 -1 0
589 2 12.927976998491221 2.6371274518706636 9.125947571929435 -6 -1 0
472 2 11.540925147222058 0.2698137966763537 9.162446588061943 -6 -1 0
545 1 11.659479583813477 1.8364898260099545 9.679895282544503 -6 -1 0
635 2 1.1442878574759996 3.6481346876787857 8.514554336152313 -5 -1 0
571 1 5.037035925163869 3.4864843624800828 7.318093640463864 -5 -1 0
586 2 4.0925314382376845 3.9332010266654094 8.592839163497272 -5 -1 0
591 1 4.33941424879198 3.9178859643755493 10.199243268139462 -5 -1 0
533 2 8.153230644787515 4.244199733773111 9.482352093601794 -5 -1 0
678 1 9.771468517305006 4.096594776567022 9.24086333974243 -6 -1 0
590 2 9.897910563276225 4.900476751294102 7.8632982406779375 -6 -1 0
668 2 10.696256280113777 4.681230747396099 10.450948785345009 -6 -2 0
555 1 0.11777583126501154 8.601010926114386 7.821463699219485 -5 -2 0
518 2 1.7644644683125206 8.25019932844828 7.793014623604315 -6 -1 0
547 2 6.090272036507431 9.648204592675038 9.290119232797549 -5 -2 0
540 1 10.623562881402773 10.413487619929343 10.348000127594279 -6 -2 0
438 2 14.061421903169764 10.23730238700813 7.727578314952656 -6 -2 0
613 2 13.247131560038277 8.11307801520197 9.046468906585632 -6 -2 0
497 1 11.598211247957162 7.890537557501102 9.057240134678333 -6 -1 0
516 2 11.183745323981372 7.105536332248094 7.678009474438283 -6 -1 0
542 2 10.786826453944368 9.327937928274023 9.131099428101741 -6 -2 0
441 2 11.10995035672029 7.175957848618558 10.452793269453377 -6 -1 0
478 2 0.5653717524994113 12.833836048205379 7.467754255131773 -5 -2 0
440 2 3.7375995547436593 10.952311043470539 8.1584750630145 -5 -2 0
485 1 4.812515803006561 10.752663297221922 9.356375338915331 -5 -2 0
442 2 5.388716618624441 12.247824252301607 9.47174640057465 -5 -2 0
494 1 6.635160179772226 13.083989853520498 10.054949210375703 -6 -2 0
531 2 7.56090646281713 13.578539374348223 8.829616589782132 -5 -2 0
492 1 7.699077704268093 13.565058899758258 7.226601576678296 -6 -2 0
511 2 10.515715558740066 11.908632553146449 9.69436531539832 -6 -2 0
546 1 13.514773273069176 11.787254061160235 7.823095780689204 -6 -2 0
656 2 13.048912833275274 12.202905956796501 9.350408721493963 -6 -1 0
549 1 11.732073783404912 12.987003548078587 9.936743458287069 -6 -2 0
607 2 2.1387041006686616 2.1870468818070536 13.472265975674613 -5 -1 0
572 2 3.30831229206901 3.036727662251372 11.133251570055888 -5 -1 0
626 1 3.51171472052193 2.5641307490675374 12.700668902525267 -6 -1 0
637 2 4.449682842041983 1.2399253150633711 12.837382506955652 -5 -1 0
661 2 5.8897509111708315 0.07784191062907561 10.947355054651393 -5 -1 0
610 1 5.883842536419244 0.5781731925298291 12.493212209609563 -6 -1 0
662 2 7.063414300050435 1.6780109792579498 12.69666498818929 -6 -1 0
684 1 8.317060485597338 1.9290183502970872 11.689712628442233 -5 -1 0
500 2 9.464813666353374 0.7964124576840591 11.883293293185035 -6 -1 0
505 2 8.755282271551392 3.4574298186327894 12.05029350329258 -6 -1 0
523 2 0.1045929188174335 0.7583314590586432 14.198666067314129 -5 0 0
539 2 11.775664857315807 1.8102470885617332 11.338649911315326 -6 -1 0
615 1 11.070620122309238 0.597623540504865 12.188752409124286 -6 -1 0
786 2 11.219090581296447 0.5943275146914344 13.820930846616672 -6 0 0
611 2 0.02372773226649723 3.6156129100469045 13.95907617121911 -5 -1 0
543 2 2.0189859087194253 5.420156424563465 13.52943608550549 -5 -2 0
600 1 3.6180764751536967 5.311555936984489 13.886995459852198 -6 -2 0
629 2 4.486560044597293 5.453566146235927 10.727713778591324 -6 -1 0
595 1 5.411367244121946 6.220685606267958 11.83142124868455 -5 -1 0
470 2 4.438066282794942 6.486598521677758 13.11395697957088 -6 -2 0
566 2 4.188746042721642 3.835457997309096 13.48419410898027 -6 -1 0
563 2 6.70482824087673 5.354578750542458 12.340855543217742 -6 -1 0
554 1 8.217477504534392 4.864909970832059 12.707205435000676 -5 -1 0
535 2 9.152127344378854 6.0715953574181905 12.094631133743697 -6 -2 0
707 1 10.657247735198728 5.960779609060412 11.444687003671628 -6 -1 0
630 2 11.58320070791455 5.790661343029144 12.794898877407634 -6 -1 0
653 2 13.737952277429384 6.237746647389831 14.244595263989485 -6 -1 0
544 1 12.396003369414915 6.92002929854178 13.65746272489636 -6 -2 0
596 2 5.806987063590308 7.654375767024482 11.184946928394236 -5 -1 0
621 2 4.330700292051579 10.077817437958368 10.820106970112157 -6 -1 0
560 1 5.7958221216612795 9.236528390751879 10.895612770890402 -6 -1 0
519 2 6.820348058958513 9.900570874669798 11.982381072949462 -6 -1 0
468 2 9.332456931472626 10.208202243600331 11.332658106509555 -6 -2 0
646 2 13.964602753708718 10.081152336333009 13.185298723725165 -6 -1 0
490 2 12.682893820859912 8.037839165087606 12.512695661056258 -5 -2 0
584 1 12.479194560259314 9.647711219833996 12.6381865880319 -6 -1 0
469 2 12.003162897063492 10.296379530043554 11.244428823323439 -6 -2 0
706 2 11.290388742138342 9.979561963796584 13.752566203434736 -6 -1 0
599 2 6.270372010767313 13.48244108627496 13.48718042982789 -6 -2 0
557 2 7.635782902652468 12.216846166151983 10.975300822153228 -6 -2 0
538 1 8.035495446464175 10.994217759545572 11.951431188339278 -6 -2 0
550 2 8.281954322131496 11.694314789631004 13.41934622369481 -5 -2 0
594 1 7.646433530052673 12.983508192488319 14.230369048381927 -5 -1 0
536 2 11.683316885291129 13.344932028403887 11.558820708243935 -7 -2 0
587 1 0.8050691247275987 2.229882524816698 14.396437323741985 -5 -1 0
649 2 0.9751798266223866 2.378150345881176 16.04278791172595 -5 0 0
552 2 3.8531908640114394 0.8538607187813887 16.61803870357703 -5 -1 0
579 1 7.027435166884369 2.3064276744832095 17.64765387519446 -6 -1 0
643 2 5.500253469231216 2.990284938679049 17.574348516238484 -5 -1 0
620 2 7.716940275577337 2.8892056380351416 16.30960508470011 -5 -2 0
720 1 10.063597421962259 0.7897227553331212 14.983098473942627 -6 0 0
640 2 9.927078671084558 2.4324396957911323 15.16875839151842 -5 -1 0
705 1 8.937593864186017 3.6970129245730603 15.577107286250289 -6 -1 0
541 1 0.6865709665545199 5.067880231641712 14.409082536195502 -5 -2 0
683 2 1.1935062687224633 4.960201093885649 15.969401642735662 -4 -2 0
602 1 0.9004053725013419 3.724865681702919 16.998300202317076 -5 -1 0
659 2 3.875706549856505 5.501949627260316 15.470720855086274 -5 -1 0
604 1 3.77661946295876 6.741753985903078 16.490424768896894 -5 -2 0
575 2 8.387516063110729 4.585828991742957 14.318652033304918 -5 -1 0
1 2 9.577937566807087 4.844213457793391 16.572536321928226 -7 -2 0
568 2 13.608598583785046 4.18678613755791 17.64285592591407 -6 -1 0
558 2 1.4339309753338778 10.030098985266024 15.490277796705668 -5 -2 0
592 1 2.1525899593240156 9.200323153247933 16.719769177123617 -5 -1 0
537 2 2.407099433197792 7.638243702413516 16.280090718422827 -5 -2 0
534 2 3.6219714259725615 9.81652495037063 17.060033336454303 -6 -2 0
585 2 5.068890458234668 7.727341582121457 16.2501443567002 -5 -1 0
618 1 5.138131622985391 9.22294345065949 16.869440094910814 -5 -2 0
617 2 5.902794717959402 10.290743224994431 15.897931578525984 -5 -2 0
642 2 10.432801228905065 9.651115324163673 16.38156011951077 -5 -2 0
466 2 12.993542411841727 10.026114082690809 15.67160126296223 -6 -2 0
789 2 11.676158945040143 7.693707145074162 14.942492673031413 -5 -2 0
682 1 11.556381324031529 9.326066187258977 15.245131483648153 -5 -2 0
583 1 0.0867318586259037 10.573590002601945 14.722711031891592 -5 -1 0
601 1 0.606698306601509 13.589525852872134 15.042625160325402 -5 -2 0
660 2 2.2522193650875084 13.576338532960746 15.100679967427075 -4 -2 0
567 1 3.233548605197411 13.493233111826056 16.40058618860141 -5 -2 0
632 2 2.2965712095000024 12.944183880890186 17.657808227680324 -5 -2 0
562 2 4.514272740135984 12.536465302624567 16.158311525141748 -6 -2 0
569 1 5.952016447038279 11.845161790570353 16.44831900495168 -5 -2 0
633 2 7.213743454415858 12.54717372094782 15.730597546076858 -5 -1 0
556 2 10.454730969170077 0.025582054682284885 16.377698723859726 -5 -1 0
553 2 8.703770642290095 0.05978216187312039 14.445639970375638 -5 -1 0
677 2 0.11325541517974913 12.176338346600662 14.447963727466812 -5 -2 0
623 2 14.12710923522122 13.626733653034686 16.54826243271508 -7 -2 0
690 2 1.975867029438642 3.4762344541419217 18.19451233075301 -5 -1 0
608 2 2.1143973775350235 2.939933541969077 20.788857996606794 -5 -1 0
658 1 2.960175875593555 2.9800884130716576 19.394581279063864 -5 -1 0
641 2 3.735854446942935 1.561641846321105 19.07226787601214 -5 -1 0
657 1 4.7694950333805695 1.5016086308983503 17.790792208206142 -5 -1 0
580 2 6.293450504367841 0.7883945139880852 17.834707912409453 -6 -1 0
58 2 8.153792030665613 2.4319960608373106 18.84463999296208 -5 -1 0
698 1 8.954047004457456 1.3145567338087365 19.76464891222012 -5 -1 0
650 2 10.35769415486038 1.8418435665339714 20.46102823028737 -6 -1 0
748 2 8.010249375048236 1.0230433855196013 21.045778958205403 -6 -1 0
777 2 9.279454599988377 0.024704322584532087 18.79614820855645 -6 -1 0
612 2 12.827803738306823 2.1791102902723862 18.9193219751387 -6 -2 0
56 1 12.981036253315509 0.6153901638659716 19.321884473107584 -6 -1 0
763 2 12.715849168203263 0.5648268137753066 20.922689074654663 -6 -1 0
700 1 12.598900100718476 3.782968693432321 18.863495526473653 -7 -1 0
691 2 0.7465211657397808 6.238132570665136 20.58594816213133 -5 -1 0
499 2 3.454309723121462 6.221063612951586 20.492517771003346 -5 -1 0
636 2 3.820487042539895 6.134325239312758 17.977617484051546 -5 -2 0
645 1 4.430536386748581 5.566641544129821 19.35546239657972 -6 -1 0
644 2 4.189917533431208 3.995421370261636 19.60342790960361 -6 -1 0
695 2 6.0586781621211285 5.776790050862264 19.334618765095648 -5 -1 0
743 2 7.441471875538333 7.361793590146767 20.83766050943328 -5 -2 0
772 1 7.548253771117422 5.895834789998729 20.029498219271133 -6 -1 0
29 2 8.785460166988827 5.763333492426924 18.975982487262822 -6 -1 0
711 1 10.095955426641876 5.431725200550519 18.013332705675747 -6 -1 0
685 2 7.76870103011811 4.77154877430924 21.225375621685163 -6 -1 0
737 2 12.951054861341358 4.56074916475416 20.25920599593123 -6 -2 0
723 2 11.054975571406933 4.220971648904598 18.55841274552441 -5 -1 0
486 2 10.989991540909612 6.829116776083236 17.939786721967852 -5 -2 0
717 1 13.281573042470068 6.051735498825843 20.851346051920846 -6 -1 0
616 2 12.333149408065879 7.214350228707406 20.156983115422648 -5 -2 0
631 2 1.3458970952928582 9.29262873069024 18.139145324110533 -5 -1 0
664 2 5.923141716225765 9.191048082166338 18.315918752267475 -6 -2 0
654 2 6.86924111826965 10.621210148408082 20.357559265349582 -5 -1 0
729 1 6.895871945092904 10.440098375814388 18.74650306415164 -6 -2 0
675 2 8.375839421517238 10.144328514505933 18.135455324737034 -6 -2 0
639 1 9.971835299547966 10.251129374656436 17.857034268980936 -5 -2 0
648 2 10.636316019764388 9.258111390761684 19.01668807318383 -6 -1 0
652 1 14.115661289191019 9.949422023460667 18.714210996761796 -6 -1 0
768 2 13.947403202738458 10.042385719135732 20.353519922803944 -6 -2 0
619 2 12.981984939267793 8.865321912957617 18.198465396832297 -5 -2 0
628 1 11.724045163736244 8.015144919629504 18.844901422186553 -6 -1 0
699 2 0.3007392402598744 14.090835251422812 19.048786757199892 -4 -2 0
605 1 0.6606360037867562 12.994715780971122 17.89144321843603 -5 -2 0
606 2 6.26795217320548 11.793591549645882 18.060721541984137 -6 -2 0
655 2 10.353106509609507 11.851855729947271 17.88081246912729 -5 -2 0
752 1 10.46448654695939 13.489628102104605 17.870329185331745 -6 -2 0
627 2 14.137968586012116 11.518441854803246 18.190574117136617 -6 -1 0
766 2 11.895285901020902 13.845692170323241 18.538324435048064 -5 -2 0
727 2 1.1662039582009431 2.4034047803889838 23.280492175182935 -6 -1 0
16 2 1.7004573467074766 0.5646409393378561 21.54606677855139 -5 -1 0
679 1 2.191999547772599 2.004500146222496 22.11480069864082 -5 -1 0
791 2 3.646866750371131 1.9784202288458204 22.83663763168618 -5 -1 0
14 1 5.251747788053685 1.9425004357829636 22.963805720926555 -5 -1 0
784 2 5.746678236478018 0.5764355308259941 22.201941031137096 -5 -1 0
624 2 5.880145911404643 3.2724408739975215 22.28145246707533 -5 -1 0
788 2 5.793958843734085 1.893259057718596 24.50689868332458 -5 -1 0
734 2 7.842552230356827 0.3852181026432428 23.75267824815629 -6 -2 0
113 2 11.698428962751397 1.9139341789960964 22.827297120461083 -6 -1 0
704 1 11.284562765630623 1.025973622164406 21.556596363340933 -6 -1 0
726 1 12.043325301349768 2.629685603740051 24.23776494163547 -6 -1 0
692 2 2.213332356410008 5.391051739998475 22.753988980910034 -5 -1 0
15 1 2.1376839352990507 6.365473502768685 21.41976258495468 -5 -2 0
779 1 2.089219567769408 5.505005723969034 24.38872887043676 -5 -1 0
45 2 5.630103573661067 5.914408487770727 22.17216388194576 -6 -1 0
50 1 6.667049347887134 4.668318173855394 22.45336580892018 -6 -1 0
725 2 7.256144242448844 4.852919929878976 23.955254836819023 -5 -1 0
773 2 10.882268140293368 6.594688073164982 23.81900809183579 -6 -1 0
790 2 13.078395831987919 6.117355337650756 22.463806346456014 -6 -1 0
787 1 12.289482273410277 5.79828223385698 23.855636894135735 -5 -1 0
609 2 12.043637407841471 4.2144888835167285 23.935294747483223 -6 -1 0
651 2 2.2165232073920813 7.927370140513582 21.897848419212384 -5 -1 0
634 2 3.1865852657710048 10.1879338713267 22.390675926533817 -4 -1 0
43 1 3.5943965752457725 8.614019867366029 22.354785215698637 -6 -1 0
638 2 4.9496138311757205 8.402951957700497 21.43310374801122 -5 -1 0
730 2 3.9985890824700836 8.084499143751236 23.846148050607972 -6 -2 0
59 1 6.201226065125439 7.443150860246758 21.912933655271516 -5 -1 0
722 2 6.653129735289838 7.928397098158641 23.413335459155366 -5 -1 0
774 1 5.4909788119909075 8.157944782772233 24.531567367230444 -6 -1 0
693 2 5.613228175731594 9.728711242304323 24.97118677554995 -5 -1 0
754 2 9.795378316119937 8.899235106314407 23.94668082187946 -6 -1 0
647 2 7.838780810988894 10.261120642769388 22.76240535085308 -6 -1 0
6 1 9.081258241491438 10.335063579446691 23.801150953202 -6 -2 0
671 1 13.878133653303204 10.377487273454982 24.672279095836835 -6 -2 0
670 2 13.91613906716884 10.431407434423543 23.045769242521903 -6 -2 0
712 2 0.7135486781593101 12.260194870085979 21.396313076221773 -5 -1 0
738 1 1.7469853447607433 13.23353833390868 22.14580979674537 -5 -2 0
54 2 1.5108994334576773 13.235559572273829 23.775671636048564 -5 -1 0
715 2 3.3065806387715133 12.749245185715246 21.9834720796133 -5 -1 0
622 2 3.6022409250690557 11.719136082901189 24.50391372659985 -6 -2 0
680 1 7.328647553626516 0.13479785568384964 22.20506847569281 -5 -2 0
719 1 3.9616724332772804 11.531387635672333 22.781635511304017 -5 -1 0
771 2 5.532662209673034 11.424652657797589 22.603924350115594 -5 -2 0
577 1 6.9727532941289265 11.253871725552722 21.836570453527596 -5 -2 0
696 2 7.58788450768384 12.741585905034901 21.77367327601385 -5 -2 0
702 2 10.108468762984621 11.370770979104279 23.096674726519034 -6 -1 0
718 2 10.46916089435615 13.770093358703729 21.87921022090481 -5 -2 0
674 1 13.718105430566725 11.100537192419953 21.574991434772926 -6 -2 0
625 2 12.219957970720156 11.75562047223739 21.543578496106758 -6 -2 0
667 1 11.16447719347549 12.465258489156362 22.575294093290537 -6 -2 0
689 2 11.87219616311629 13.081471035039504 23.908702323535735 -6 -1 0
673 1 0.8780966577363956 2.6806506456866743 24.855768193015532 -4 -1 0
776 2 1.7126088996664401 1.7954903500132002 25.957035104199615 -5 -1 0
687 1 1.7234506466310966 0.6363742236144646 27.129708752842614 -5 -1 0
749 1 7.150293736915096 1.1440114789837672 25.060865614376894 -6 -1 0
765 2 8.25430383680287 2.1323572347902973 25.695152070198173 -5 -1 0
22 1 9.645533342946159 2.915435334877437 25.913746013802815 -6 -1 0
750 2 9.983516783107428 3.1489347110194266 27.485407258053634 -6 -1 0
697 2 10.88542098527233 2.1223371767760755 25.252175866015474 -5 -1 0
728 2 13.446527068753525 2.2964225173504924 24.99879166916418 -6 -1 0
721 2 0.2521594559621948 0.5478205786907545 27.822344915672346 -4 -1 0
775 2 1.4118936369306614 6.932081788676421 24.750976065977262 -5 -1 0
46 2 1.230959508114373 4.2668847240236145 25.035929738715122 -5 -1 0
686 2 3.5141713625510014 5.56080812585109 25.158356947423833 -6 -2 0
716 1 4.228443524325008 6.3121187133019205 26.414986886231397 -5 -1 0
694 2 4.490645287241009 5.088720306836857 27.43877437360306 -4 -1 0
764 2 5.549204250804189 7.052881731610789 25.723762713687627 -5 -2 0
32 2 7.429948304762792 4.948742239156647 26.664362845941614 -6 -1 0
25 1 7.428899970733243 5.314900736439941 28.26765324811135 -6 -1 0
7 2 7.093239467083545 6.8973473310638065 28.34754628496873 -6 -1 0
663 1 8.161727045564216 5.282597918147595 25.239404467979824 -6 -2 0
24 2 9.504459810851268 4.360174539431761 25.17046546522105 -6 -1 0
731 2 8.64100569149161 6.843233938220548 25.208137609055093 -6 -2 0
669 2 10.927612808085016 5.691978120693644 27.549337560444275 -6 -2 0
724 2 13.095585994621128 6.2971911305735 25.19190316512279 -5 -1 0
18 2 3.4888579100970456 7.571279934921662 27.20828019488018 -5 -2 0
714 2 3.649175713056187 10.245813778047475 26.65216721629074 -5 -1 0
732 1 3.959816035937119 9.049087247131709 27.765078125380278 -5 -2 0
703 2 5.5908280013469165 9.075287657759631 27.92938978511736 -5 -2 0
746 1 4.722406837719248 10.892094194073414 25.63682258588028 -5 -2 0
701 1 10.059054440604378 7.565511879850372 24.82413733847947 -6 -1 0
28 2 9.61324443646072 10.382607418092562 27.78478773883264 -6 -1 0
785 2 10.897561754237623 7.93077736988518 26.186750749722272 -6 -1 0
60 1 11.055299816601028 7.309544551896731 27.700828600837397 -6 -1 0
708 2 0.4735274525835491 7.481860971679351 27.175014879037708 -5 -1 0
614 1 0.10955783466917407 7.377755040039769 25.59041517896211 -4 -3 0
666 2 13.81412895447383 8.84224961072385 25.089980431983435 -6 -2 0
33 2 1.092134754533058 11.101485905478592 25.279757644993 -5 -2 0
49 2 2.191721122953822 13.363917218616354 26.34401201375906 -5 -1 0
793 1 2.020733091000057 12.401391189143412 25.064606333697327 -5 -1 0
753 2 6.6874274760766905 0.23812822575268489 26.29694997819027 -6 -1 0
66 2 5.675375451995607 12.086978199246147 26.004348390961514 -6 -2 0
780 1 6.482524770851688 13.002238802906504 27.117415325360046 -5 -1 0
761 2 8.579203687478488 10.784858312304829 25.284471655717937 -5 -2 0
782 2 7.9651562248720165 12.348962287220338 27.338242224736835 -5 -1 0
745 1 9.138799866312722 11.465370008341427 26.66752252815548 -5 -2 0
4 2 10.416467484944055 12.369103267901885 26.19140870100501 -6 -2 0
756 2 12.694093790889427 13.639656791735613 26.232986860495096 -6 -2 0
709 2 12.57993066026601 11.065464767686528 25.363665280892633 -6 -2 0
713 1 11.847261322155342 12.524506049926906 25.438876930567965 -6 -2 0
767 1 13.04497608429053 13.788386550898968 27.807792418315415 -5 -2 0
104 2 13.353952169187153 12.283326101271276 28.352565468708825 -5 -2 0
688 2 2.710923296651358 0.8923787051656586 28.37091252523039 -5 -1 0
762 2 2.533643669814852 1.9645635362915193 30.93451534800954 -5 -1 0
30 1 3.519868694168248 1.483837975230357 29.673630388234155 -5 -1 0
760 2 4.526902022433017 0.39969727643195024 30.30418323984066 -5 -1 0
83 2 4.299591873401403 2.755246005826671 28.975792385911546 -5 -1 0
792 2 9.578633955065882 0.2719064821959534 30.27530572285179 -5 -1 0
11 2 11.800555180994621 0.3429626476794071 28.601111687043286 -6 -1 0
10 1 11.191031763070393 0.39784234586487427 30.129035229559115 -6 -1 0
665 2 11.736891916636848 1.7626619112304824 30.827913214971854 -6 -1 0
93 1 11.548157069711777 3.3657052796909954 30.992654849641742 -6 -1 0
39 2 1.901989668186919 5.73586329352709 31.511353574862717 -5 -1 0
34 1 3.453638003880842 5.210519933626233 31.51895074484682 -5 -1 0
116 2 3.852871269921553 5.111291586337426 29.949103858966446 -5 -1 0
85 1 0.9415530722112752 7.054423581164598 31.373975777798957 -4 -2 0
747 1 4.727672450830354 4.307195745226921 28.85967260102217 -5 -1 0
52 2 6.340522614212549 4.415530824322444 29.079729215488292 -6 -1 0
48 1 10.273805307083832 4.462919362245451 28.404274026160504 -6 -1 0
676 2 8.848176994404458 4.985787920639026 28.993748389508518 -5 -1 0
91 2 11.333044834507263 4.04933562741836 29.538947352258905 -6 -1 0
96 2 12.87708144436143 4.048143460518302 31.666411558577877 -6 -1 0
3 2 0.6720518684224195 7.476240674186484 29.81360080288487 -6 -2 0
710 2 3.1925798871976907 9.538947906732158 29.09732233669719 -5 -2 0
9 2 2.399367138949788 10.596506643703924 31.34042812197594 -5 -2 0
40 2 5.483557969245934 7.840913331458294 30.17354883792496 -5 -1 0
672 1 6.525283269871734 8.260684260198374 29.003790652040013 -6 -2 0
75 1 5.188374801649064 7.673378704127054 31.767096112503463 -5 -2 0
757 2 7.761867151560847 9.240731740980578 29.399270927300957 -6 -2 0
751 1 9.361960359731167 9.387317580491128 29.058987967123123 -6 -2 0
742 2 9.86706088076282 7.901300557546745 28.634566080292835 -5 -2 0
781 2 10.200701976690102 9.895601099790678 30.37465363453032 -6 -1 0
159 2 14.078222618628969 9.736554523119977 28.640248256157687 -6 -2 0
100 1 13.99484742035559 8.107561696315491 28.55801010009668 -6 -2 0
741 2 12.421505025344025 7.701632824581498 28.48391460814545 -6 -2 0
37 2 1.664775756428903 11.711462975885121 29.149170174567278 -5 -2 0
35 1 2.9725217253848006 11.002333814706338 29.872855775402552 -5 -2 0
61 2 5.520765220980958 13.075650594069764 28.373216442805965 -5 -1 0
758 2 4.285352902351532 11.885037281937585 29.98860494374028 -5 -1 0
740 1 5.450099639198989 13.155099080677727 30.1196821490958 -5 -2 0
82 2 5.7825422380154725 12.645405481693565 31.772880838911956 -5 -2 0
735 2 7.077040714280222 13.728768881197922 29.9882722647605 -6 -2 0
90 1 8.363332406074411 13.51003621161168 30.929244489763125 -6 -2 0
733 2 8.788613787474526 11.925369988399044 30.97408850791275 -6 -2 0
86 1 9.4988846291764 10.64521552559884 31.66938992114533 -5 -2 0
94 1 0.0974688350674101 11.243327649218498 29.238536479733558 -5 -2 0
98 2 0.20003611727433462 13.782433764522732 31.857256587881995 -5 -2 0
769 2 13.641935018092514 11.342837110995735 30.769725275237665 -6 -2 0
783 2 11.794286404547096 13.230187327086348 30.87061088697735 -6 -1 0
109 1 13.115453025003044 12.658935685532592 31.579694520924846 -6 -2 0
65 2 1.4437363387722368 3.0177288837335388 33.37890566620544 -5 -1 0
759 1 2.7325376182841525 2.4648680770084708 32.50727872403349 -5 -1 0
63 2 3.331159680430783 1.2455968748739072 33.414587033400814 -5 -1 0
84 2 5.731647534949015 0.28459548994899964 33.78083958282683 -5 -1 0
55 2 10.238058435352587 3.685037521777062 31.913084409344034 -6 -1 0