ITEM: TIME
0
ITEM: TIMESTEP
0
ITEM: NUMBER OF ATOMS
4
ITEM: BOX BOUNDS xy xz yz pp pp ff
0.0000000000000000e+00 1.5000000000000000e+01 0.0000000000000000e+00
0.0000000000000000e+00 1.5000000000000000e+01 0.0000000000000000e+00
0.0000000000000000e+00 1.5000000000000000e+01 0.0000000000000000e+00
ITEM: ATOMS id element xu yu zu vx vy vz fx fy fz
1 C 7.500000000000000 7.500000000000000 7.500000000000000 0.000 0.000 0.000 1.249 -1.856 1.642
2 H 7.500000000000000 7.500000000000000 8.621602616355000 0.000 0.000 0.000 -0.137 1.572 -0.010
3 F 6.961156133444000 6.281102470868000 7.297536799719000 0.000 0.000 0.000 -1.288 -0.652 -1.165
4 F 8.778171938547001 7.361412901480000 7.060149509223000 0.000 0.000 0.000 0.176 0.935 -0.468
ITEM: TIME
0.001
ITEM: TIMESTEP
1
ITEM: NUMBER OF ATOMS
4
ITEM: BOX BOUNDS xy xz yz pp pp ff
0.0000000000000000e+00 1.5000000000000000e+01 0.0000000000000000e+00
0.0000000000000000e+00 1.5000000000000000e+01 0.0000000000000000e+00
0.0000000000000000e+00 1.5000000000000000e+01 0.0000000000000000e+00
ITEM: ATOMS id element xu yu zu vx vy vz fx fy fz
1 C 7.559102448932205 7.412232258179562 7.577687303887224 0.000 0.000 0.000 -0.374 -1.628 -1.521
2 H 7.493497855147053 7.574376298024555 8.621146740992476 0.000 0.000 0.000 0.157 0.553 1.310
3 F 6.900222076665640 6.250282236499660 7.242450035651888 0.000 0.000 0.000 0.370 0.894 0.027
4 F 8.786505691246100 7.405624579644223 7.038004844765412 0.000 0.000 0.000 -0.154 0.181 0.185
ITEM: TIME
0.002
ITEM: TIMESTEP
2
ITEM: NUMBER OF ATOMS
4
ITEM: BOX BOUNDS xy xz yz pp pp ff
0.0000000000000000e+00 1.5000000000000000e+01 0.0000000000000000e+00
0.0000000000000000e+00 1.5000000000000000e+01 0.0000000000000000e+00
0.0000000000000000e+00 1.5000000000000000e+01 0.0000000000000000e+00
ITEM: ATOMS id element xu yu zu vx vy vz fx fy fz
1 C 7.563865837531151 7.373750102701911 7.569126553293511 0.000 0.000 0.000 -0.403 -0.104 0.258
2 H 7.494646356018312 7.595094796418763 8.639911657702370 0.000 0.000 0.000 0.164 0.134 -0.064
3 F 6.895096593476445 6.257861673295022 7.233386304242096 0.000 0.000 0.000 0.192 0.069 -0.168
4 F 8.785719284965092 7.415808799932304 7.036864410059024 0.000 0.000 0.000 0.048 -0.099 -0.026
ITEM: TIME
0.003
ITEM: TIMESTEP
3
ITEM: NUMBER OF ATOMS
4
ITEM: BOX BOUNDS xy xz yz pp pp ff
0.0000000000000000e+00 1.5000000000000000e+01 0.0000000000000000e+00
0.0000000000000000e+00 1.5000000000000000e+01 0.0000000000000000e+00
0.0000000000000000e+00 1.5000000000000000e+01 0.0000000000000000e+00
ITEM: ATOMS id element xu yu zu vx vy vz fx fy fz
1 C 7.554950070138039 7.368919613014793 7.574469219931790 0.000 0.000 0.000 0.144 0.108 -0.047
2 H 7.498458986295162 7.599471470501396 8.639654722972832 0.000 0.000 0.000 0.100 0.091 0.066
3 F 6.899163560869205 6.259925724199756 7.228963537414925 0.000 0.000 0.000 0.001 -0.138 -0.141
4 F 8.786755454688594 7.414198564632053 7.036201444977454 0.000 0.000 0.000 -0.246 -0.061 0.122
ITEM: TIME
0.004
ITEM: TIMESTEP
4
ITEM: NUMBER OF ATOMS
4
ITEM: BOX BOUNDS xy xz yz pp pp ff
0.0000000000000000e+00 1.5000000000000000e+01 0.0000000000000000e+00
0.0000000000000000e+00 1.5000000000000000e+01 0.0000000000000000e+00
0.0000000000000000e+00 1.5000000000000000e+01 0.0000000000000000e+00
ITEM: ATOMS id element xu yu zu vx vy vz fx fy fz
1 C 7.551013562116166 7.368040512263629 7.578462303554780 0.000 0.000 0.000 0.099 0.038 -0.150
2 H 7.506896964690878 7.608136987427058 8.642130732830573 0.000 0.000 0.000 0.001 -0.009 0.078
3 F 6.903767126464169 6.256477588597732 7.218152440815595 0.000 0.000 0.000 -0.078 -0.065 0.023
4 F 8.777650418719787 7.409860284059580 7.040543448096053 0.000 0.000 0.000 -0.022 0.035 0.048
ITEM: TIME
0.005
ITEM: TIMESTEP
5
ITEM: NUMBER OF ATOMS
4
ITEM: BOX BOUNDS xy xz yz pp pp ff
0.0000000000000000e+00 1.5000000000000000e+01 0.0000000000000000e+00
0.0000000000000000e+00 1.5000000000000000e+01 0.0000000000000000e+00
0.0000000000000000e+00 1.5000000000000000e+01 0.0000000000000000e+00
ITEM: ATOMS id element xu yu zu vx vy vz fx fy fz
1 C 7.552394599525577 7.368590757001256 7.576329700334326 0.000 0.000 0.000 -0.023 0.025 0.003
2 H 7.507080488024722 7.608181899362765 8.643337679274230 0.000 0.000 0.000 0.003 -0.024 -0.023
3 F 6.902712030854849 6.255448930499926 7.218276663128382 0.000 0.000 0.000 -0.033 -0.021 0.021
4 F 8.777140953585853 7.410293785484052 7.041344882560064 0.000 0.000 0.000 0.054 0.020 -0.001
ITEM: TIME
0.006
ITEM: TIMESTEP
6
ITEM: NUMBER OF ATOMS
4
ITEM: BOX BOUNDS xy xz yz pp pp ff
0.0000000000000000e+00 1.5000000000000000e+01 0.0000000000000000e+00
0.0000000000000000e+00 1.5000000000000000e+01 0.0000000000000000e+00
0.0000000000000000e+00 1.5000000000000000e+01 0.0000000000000000e+00
ITEM: ATOMS id element xu yu zu vx vy vz fx fy fz
1 C 7.552033487391468 7.369507763474151 7.575853928315388 0.000 0.000 0.000 -0.006 -0.025 -0.027
2 H 7.507223668107922 7.607460101281606 8.642957788586450 0.000 0.000 0.000 0.002 -0.016 -0.016
3 F 6.901391238357054 6.254501934520187 7.218950303184706 0.000 0.000 0.000 0.014 0.035 0.026
4 F 8.778679678134557 7.411045573072055 7.041526905210459 0.000 0.000 0.000 -0.010 0.006 0.016
ITEM: TIME
0.007
ITEM: TIMESTEP
7
ITEM: NUMBER OF ATOMS
4
ITEM: BOX BOUNDS xy xz yz pp pp ff
0.0000000000000000e+00 1.5000000000000000e+01 0.0000000000000000e+00
0.0000000000000000e+00 1.5000000000000000e+01 0.0000000000000000e+00
0.0000000000000000e+00 1.5000000000000000e+01 0.0000000000000000e+00
ITEM: ATOMS id element xu yu zu vx vy vz fx fy fz
1 C 7.551716801708385 7.369418607499632 7.574991009660929 0.000 0.000 0.000 0.011 0.003 0.007
2 H 7.507352936392258 7.606719158753705 8.642400997902138 0.000 0.000 0.000 -0.001 -0.007 -0.018
3 F 6.901020141771355 6.254812864188838 7.219906187968856 0.000 0.000 0.000 0.010 0.010 0.004
4 F 8.779238192119005 7.411564741905823 7.041990729765080 0.000 0.000 0.000 -0.020 -0.006 0.007
ITEM: TIME
0.008
ITEM: TIMESTEP
8
ITEM: NUMBER OF ATOMS
4
ITEM: BOX BOUNDS xy xz yz pp pp ff
0.0000000000000000e+00 1.5000000000000000e+01 0.0000000000000000e+00
0.0000000000000000e+00 1.5000000000000000e+01 0.0000000000000000e+00
0.0000000000000000e+00 1.5000000000000000e+01 0.0000000000000000e+00
ITEM: ATOMS id element xu yu zu vx vy vz fx fy fz
1 C 7.551904913454562 7.369478592417035 7.575078853023132 0.000 0.000 0.000 -0.002 0.002 0.002
2 H 7.507348722863308 7.606522232517317 8.642006594572461 0.000 0.000 0.000 -0.001 -0.001 -0.001
3 F 6.901201065948714 6.255023100514087 7.220048927906523 0.000 0.000 0.000 0.004 0.002 0.001
4 F 8.778873369724417 7.411491446899559 7.042154549794886 0.000 0.000 0.000 0.000 -0.002 -0.002
ITEM: TIME
0.009000000000000001
ITEM: TIMESTEP
9
ITEM: NUMBER OF ATOMS
4
ITEM: BOX BOUNDS xy xz yz pp pp ff
0.0000000000000000e+00 1.5000000000000000e+01 0.0000000000000000e+00
0.0000000000000000e+00 1.5000000000000000e+01 0.0000000000000000e+00
0.0000000000000000e+00 1.5000000000000000e+01 0.0000000000000000e+00
ITEM: ATOMS id element xu yu zu vx vy vz fx fy fz
1 C 7.551841253135175 7.369538418376059 7.575128691426703 0.000 0.000 0.000 0.002 0.001 -0.003
2 H 7.507313648821741 7.606480792673735 8.641990139667783 0.000 0.000 0.000 -0.001 -0.000 0.002
3 F 6.901299326384086 6.255074807229391 7.220066147150335 0.000 0.000 0.000 0.001 0.000 0.001
4 F 8.778873843650000 7.411421354068814 7.042103947052182 0.000 0.000 0.000 -0.002 -0.001 0.000
ITEM: TIME
0.01
ITEM: TIMESTEP
10
ITEM: NUMBER OF ATOMS
4
ITEM: BOX BOUNDS xy xz yz pp pp ff
0.0000000000000000e+00 1.5000000000000000e+01 0.0000000000000000e+00
0.0000000000000000e+00 1.5000000000000000e+01 0.0000000000000000e+00
0.0000000000000000e+00 1.5000000000000000e+01 0.0000000000000000e+00
ITEM: ATOMS id element xu yu zu vx vy vz fx fy fz
1 C 7.551854495544862 7.369607208297640 7.575083496300870 0.000 0.000 0.000 0.000 0.001 0.000
2 H 7.507269135272916 7.606444998427552 8.642039581797452 0.000 0.000 0.000 -0.000 -0.000 0.000
3 F 6.901377617252248 6.255107229834351 7.220088949181822 0.000 0.000 0.000 -0.001 -0.001 -0.000
4 F 8.778826823920978 7.411355935788455 7.042076898016858 0.000 0.000 0.000 0.001 0.000 -0.001
ITEM: TIME
0.011
ITEM: TIMESTEP
11
ITEM: NUMBER OF ATOMS
4
ITEM: BOX BOUNDS xy xz yz pp pp ff
0.0000000000000000e+00 1.5000000000000000e+01 0.0000000000000000e+00
0.0000000000000000e+00 1.5000000000000000e+01 0.0000000000000000e+00
0.0000000000000000e+00 1.5000000000000000e+01 0.0000000000000000e+00
ITEM: ATOMS id element xu yu zu vx vy vz fx fy fz
1 C 7.551861054500780 7.369639760264771 7.575083777415955 0.000 0.000 0.000 -0.000 -0.000 -0.000
2 H 7.507255116398404 7.606436187861830 8.642052129660033 0.000 0.000 0.000 -0.000 -0.000 0.000
3 F 6.901374976783162 6.255091899724738 7.220090602218845 0.000 0.000 0.000 -0.000 0.000 0.000
4 F 8.778836924308658 7.411347524496660 7.042062416002167 0.000 0.000 0.000 0.000 0.000 -0.000
ITEM: TIME
0.012
ITEM: TIMESTEP
12
ITEM: NUMBER OF ATOMS
4
ITEM: BOX BOUNDS xy xz yz pp pp ff
0.0000000000000000e+00 1.5000000000000000e+01 0.0000000000000000e+00
0.0000000000000000e+00 1.5000000000000000e+01 0.0000000000000000e+00
0.0000000000000000e+00 1.5000000000000000e+01 0.0000000000000000e+00
ITEM: ATOMS id element xu yu zu vx vy vz fx fy fz
1 C 7.551857836425026 7.369634476995354 7.575077647714297 0.000 0.000 0.000 0.000 0.000 0.000
2 H 7.507250708892269 7.606433206498568 8.642055434059136 0.000 0.000 0.000 -0.000 -0.000 -0.000
3 F 6.901373512817687 6.255096856634149 7.220097178691392 0.000 0.000 0.000 -0.000 -0.000 0.000
4 F 8.778846013856020 7.411350832219927 7.042058664832175 0.000 0.000 0.000 0.000 0.000 -0.000
ITEM: TIME
0.013
ITEM: TIMESTEP
13
ITEM: NUMBER OF ATOMS
4
ITEM: BOX BOUNDS xy xz yz pp pp ff
0.0000000000000000e+00 1.5000000000000000e+01 0.0000000000000000e+00
0.0000000000000000e+00 1.5000000000000000e+01 0.0000000000000000e+00
0.0000000000000000e+00 1.5000000000000000e+01 0.0000000000000000e+00
ITEM: ATOMS id element xu yu zu vx vy vz fx fy fz
1 C 7.551864331375223 7.369638577591682 7.575077655439730 0.000 0.000 0.000 0.000 -0.000 -0.000
2 H 7.507241615077722 7.606425084703254 8.642052070954728 0.000 0.000 0.000 -0.000 -0.000 -0.000
3 F 6.901366668256761 6.255096551538535 7.220106006392652 0.000 0.000 0.000 0.000 0.000 0.000
4 F 8.778855457281297 7.411355158514526 7.042053192509889 0.000 0.000 0.000 -0.000 -0.000 0.000
ITEM: TIME
0.014
ITEM: TIMESTEP
14
ITEM: NUMBER OF ATOMS
4
ITEM: BOX BOUNDS xy xz yz pp pp ff
0.0000000000000000e+00 1.5000000000000000e+01 0.0000000000000000e+00
0.0000000000000000e+00 1.5000000000000000e+01 0.0000000000000000e+00
0.0000000000000000e+00 1.5000000000000000e+01 0.0000000000000000e+00
ITEM: ATOMS id element xu yu zu vx vy vz fx fy fz
1 C 7.551868514428473 7.369638594617235 7.575075508184721 0.000 0.000 0.000 -0.000 0.000 0.000
2 H 7.507238769603571 7.606422356041797 8.642051051898331 0.000 0.000 0.000 -0.000 -0.000 -0.000
3 F 6.901366576352730 6.255098720509016 7.220109345937797 0.000 0.000 0.000 0.000 0.000 0.000
4 F 8.778854211606228 7.411355701179949 7.042053019276150 0.000 0.000 0.000 0.000 -0.000 -0.000
ITEM: TIME
0.015
ITEM: TIMESTEP
15
ITEM: NUMBER OF ATOMS
4
ITEM: BOX BOUNDS xy xz yz pp pp ff
0.0000000000000000e+00 1.5000000000000000e+01 0.0000000000000000e+00
0.0000000000000000e+00 1.5000000000000000e+01 0.0000000000000000e+00
0.0000000000000000e+00 1.5000000000000000e+01 0.0000000000000000e+00
ITEM: ATOMS id element xu yu zu vx vy vz fx fy fz
1 C 7.551868368660712 7.369638725055757 7.575076419495705 0.000 0.000 0.000 0.000 0.000 -0.000
2 H 7.507237867600980 7.606421427111721 8.642050011452257 0.000 0.000 0.000 -0.000 0.000 0.000
3 F 6.901367816954942 6.255100118931123 7.220110147479451 0.000 0.000 0.000 0.000 -0.000 -0.000
4 F 8.778854018774370 7.411355101249396 7.042052346869585 0.000 0.000 0.000 -0.000 -0.000 -0.000
