LAMMPS data file via write_data, version 2 Aug 2023, timestep = 87000, units = metal

5162 atoms
5 atom types

0 30 xlo xhi
0 30 ylo yhi
0 60 zlo zhi

Masses

1 28.0855
2 14.0067
3 12.011
4 1.00784
5 18.998

Atoms # atomic

1 1 0.37903704448335 1.2161637502794902 3.15256352359224 0 0 0
473 1 2.678053546104376 0.9481280275777006 6.525957128408504 0 0 0
643 2 2.0149512494627335 1.7664490307548282 3.44164088445565 0 1 0
858 2 3.775268983093252 3.2139215865587234 2.1603176609509007 0 0 0
520 2 2.3326686974550594 2.585767426003163 6.05289254610921 1 0 0
4769 1 2.6733494429439237 1.8651037648696376 1.792074937253931 0 0 1
230 1 2.8700121066483364 2.9762000815124985 4.386699089763003 1 0 0
361 2 4.234616325855989 0.4621320144615218 6.147170780499053 0 1 0
4074 2 3.214511663539212 0.27732901654782294 1.5182560096697508 1 0 1
1209 2 2.5815244461655094 4.600833413065613 3.961312242752229 0 0 0
3911 2 4.69449291995233 2.6120377121741294 4.604331387681621 0 1 1
868 2 2.074884801481363 2.4412974109502277 0.27219799230163694 0 0 0
663 1 3.205397165214609 4.956564841909945 2.350767885911423 0 0 0
4468 1 14.864436557252406 8.509422717022378 1.1222653655664598 0 0 1
882 1 5.292401927991399 1.8171028359341368 6.063756707178497 0 0 0
599 1 5.229611000197932 2.762614933482296 2.9372528645906013 0 0 0
565 2 6.111493419956723 4.184880738859243 2.5573649001038983 0 0 0
495 2 5.93446361136766 1.1931470878754573 1.9053921567990733 0 0 0
470 2 7.743301663957686 1.3931912791177636 4.153819399710767 0 0 0
77 2 6.852504876681133 1.1713683623528892 6.440866781136814 0 0 0
787 1 9.085302557968262 2.3082620700018475 3.7050445736583333 0 1 0
532 2 8.983433795021146 2.6527724927735195 2.0730143600147772 0 0 0
770 2 9.405686950534967 3.7576569309952785 4.5227720799691955 0 1 0
4890 1 9.063708950771282 4.412646841613442 1.8837550001341965 0 0 1
3600 1 9.196664999127591 1.8828762208326726 0.6168258918542927 0 0 1
967 1 6.2667389655933095 4.324681094512132 0.8138122146067972 1 0 0
2333 1 8.335244588325244 0.6922864719537472 5.646388977424878 1 1 0
1575 2 9.368365364839308 1.517767173656384 6.770101177908432 0 1 0
4469 1 6.874953519036144 0.22522507994732108 3.1844458593361002 0 0 1
534 1 6.14145934726294 1.4483090617717234 0.1418329193385584 0 0 0
4733 2 7.992648285745599 4.606835102641232 0.6312997999473742 0 1 1
343 2 9.968600713118692 0.37862567867785274 1.0891311112600133 1 1 0
537 1 0.0290739642000775 5.00916364203974 6.895188298868762 0 0 0
4694 1 11.234709362182226 14.119227584809785 6.823546161652178 0 0 1
4811 2 14.771569661686975 0.01808622081310163 2.5144830158723397 0 0 1
135 2 10.359538222062291 1.1300176997458562 3.832219932942392 0 0 0
4445 1 13.229693346844531 0.2441451907472098 1.680849804501077 0 0 1
4724 1 12.069180408320243 1.5073803127128826 3.78535120204114 0 1 1
354 2 12.573162533537138 1.7769033614355658 2.115799452383163 0 1 0
409 2 11.200178761319606 4.023064920389374 6.538722175639993 1 1 0
717 1 12.783261871452858 3.426452462603144 6.1177550488225565 0 1 0
38 1 12.245570688621836 3.3555937442325785 1.335013209266237 0 0 0
147 2 13.907638057769319 4.547400930527339 5.391485482178266 0 0 0
453 1 13.892358607963475 3.9336610575464928 3.7577734362980886 0 0 0
823 2 12.27486680117597 3.0712867885541466 4.505186865088926 0 0 0
387 1 11.042444261346576 4.266527701206054 4.77775767990498 0 1 0
4891 2 10.769883895107327 4.383273000174022 1.5225695768002947 0 0 1
778 2 13.134737129385543 0.7070199422578582 4.827344664192217 0 1 0
151 2 13.129863468489768 4.782707759627529 2.387281918094506 0 0 0
269 1 14.815486305051898 0.9268979286204443 4.0296103698991885 0 1 0
598 2 14.879445222630551 2.5378449048113163 3.598670631986166 0 0 0
4077 1 10.081522495865153 3.0748094995104727 7.450307087331434 1 0 1
316 1 7.837770808032921 2.083444688052949 7.487502821331626 0 1 0
173 2 2.8528946889436995 4.988251544794593 0.5498145468986663 1 0 0
4867 1 0.23304001346555617 8.26724297411945 1.6126313102759045 1 0 1
1372 2 0.5320798175014985 8.98068571275141 6.453585109425073 0 0 0
876 2 1.6866281320962937 5.726615986437621 6.635705427604209 0 0 0
2 1 2.6815218921274178 5.863757590544576 5.215970014564549 0 0 0
583 2 3.979948386622688 6.587690528445996 2.338256371318217 1 0 0
188 2 2.240592723244049 7.470877392672833 4.443923195812625 0 0 0
1008 1 2.902559704289137 7.856731242531249 2.808277830783571 1 0 0
832 2 1.6818452514472566 7.410364070983271 1.6396749442413265 1 0 0
909 2 4.253326112153347 6.107450011712938 5.964283988067761 1 0 0
427 1 3.6351731567046595 7.545620882353717 6.875948147598764 0 0 0
4785 1 2.099153343994011 8.671638822290486 5.656649826955654 0 0 1
13 2 3.5642159342795408 9.576428213099424 2.8002430386745787 0 0 0
124 2 0.1492905874405516 9.345983248131057 2.9530168134374977 0 0 0
1129 1 14.463701370583003 13.470393768754613 6.972473400531899 0 0 0
4064 1 2.024967754310076 6.447277275420308 0.20375718643644186 1 0 1
3 2 6.810132644749374 5.121245900057176 5.185248525048877 0 0 0
5081 2 5.216878260808013 8.579306722838096 0.7210465259487037 0 0 1
133 1 8.497992014161426 5.165415931059173 5.004046894830523 0 0 0
4910 1 5.313731555765716 7.074091682329717 1.4930827993423161 0 0 1
774 1 6.632069419443327 5.4807186125838365 3.429469373528208 0 1 0
4831 2 5.728332275279722 9.243790001730408 4.874424511468404 0 0 1
4899 2 8.762783822624122 7.749050010313969 1.2424599397626448 0 0 1
479 1 5.918534198067581 5.892546638960241 6.472595988044592 0 0 0
4984 1 8.467273715778527 7.087019288283651 7.161632945023523 0 0 1
78 1 6.214573356341334 8.88949513560977 6.511961605391535 0 0 0
489 2 6.463166176437809 7.037977637147435 2.7949634267808947 0 0 0
754 2 6.913501485840126 7.299510031560038 6.616330865646588 1 1 0
120 2 8.383138978143695 5.524551071535322 3.20786719848967 0 0 0
4573 1 8.104249632276755 7.337703984272921 2.720201156381801 0 0 1
3976 2 8.538585041815857 8.666417755725726 3.7866668544858655 0 -1 1
1283 2 9.338142376274481 6.313633944225017 5.931401132564506 0 0 0
4895 2 5.746555791842867 5.862738060627878 0.24146893347091883 0 0 1
4962 1 7.144545453650188 9.835133261126913 3.9560118903912693 0 0 1
552 1 6.325873689194055 9.884729158118526 0.9306391329884095 0 0 0
610 1 14.918460048225553 8.384419219208484 6.7013637031683 0 0 0
4039 1 10.414604719593891 8.622447663507812 1.2231898512892387 0 0 1
4937 1 10.128869439002335 9.420935238633854 4.173150571342009 1 0 1
4521 1 10.70287246457154 9.509773259872278 6.997428505897447 0 0 1
82 1 12.928944904920812 9.164968281011399 3.1056839156199554 0 0 0
936 1 12.327500262114816 6.333905168027953 2.964947618080446 0 0 0
4372 2 11.443522322466183 5.889983181624343 4.474071215849797 0 0 1
148 2 13.601904661748465 9.594363887028194 1.5163337364041805 0 0 0
4851 1 10.912419645412578 6.879580101278524 5.820849108814397 0 0 1
609 2 11.346729459654172 7.028078341723592 1.6417693326340947 0 0 0
563 2 13.491099207088261 7.569480125057251 3.584956006182874 0 0 0
194 2 11.028834559108967 8.60209074839472 5.463148110133163 0 0 0
322 2 11.216772273133358 9.276264047648967 2.7894689564024766 0 0 0
76 1 11.08789809309457 5.737956546548688 0.5718141865756602 0 0 0
962 2 14.208752124340744 6.808108144792551 6.982675305849684 0 0 0
4941 2 14.544462576563497 6.766185730965279 0.8153267114613447 1 0 1
835 2 14.211348017898784 9.95747121867424 6.71683876026356 0 0 0
4505 1 10.361458649579886 12.210618141307584 5.511253375092743 0 0 1
5032 2 0.7119138241981499 13.798885189834824 0.22039135430825585 1 0 1
921 2 4.797501904988328 11.575343725048123 7.282970807104624 0 0 0
1779 2 1.8366159894872789 12.334797463734084 7.221807680148251 0 0 0
719 2 4.421357018602585 14.577313924123516 3.503612915567743 0 0 0
226 2 3.256341643483991 12.412852145569104 0.9226232269963559 1 0 0
373 1 0.5806440342515556 13.498165171686123 4.011229360138983 0 0 0
121 2 0.9817435143369713 14.408097485801107 5.450344574205313 0 0 0
888 1 3.6238663284587345 13.223605927587247 4.023862555572977 1 0 0
175 1 1.7472897051984289 12.968733729971605 1.4099424361124122 0 0 0
1019 2 1.1095870344256666 11.386204170731295 1.3094411376868627 1 0 0
1026 2 2.993056459600355 10.1944066433754 5.46782056708508 1 0 0
856 2 2.026770603957275 13.225662556272246 3.1208451464741276 1 0 0
595 1 4.19049708200623 10.199811708106216 4.278782704600214 0 0 0
1381 1 3.071837977891979 11.139939062100206 6.957532904280663 0 0 0
972 1 3.5873164006056606 10.648420214507373 1.3798729134117707 0 0 0
525 2 3.643076726807084 13.597841399261112 5.841150087128652 0 0 0
1423 1 2.1324476576815146 13.852709385918642 6.477011969218937 0 0 0
1377 2 4.723637877386175 11.892506711903653 4.007480967884148 0 0 0
242 1 4.98440790255429 13.243771544685153 6.9153504263673256 0 0 0
4896 1 5.930322215934439 14.689420992272742 2.779285304419931 0 0 1
5065 2 8.012593483982599 12.437332144896512 0.5813352125890572 1 0 1
4777 2 5.283128765494663 11.296129536653837 0.7294190132228517 0 0 1
978 2 5.7081020236328195 13.998544545480572 1.1763719764853804 0 0 0
4591 2 6.788114009133447 10.50991952153754 2.4459506116796605 1 0 1
5023 1 8.78656704890432 13.789581759596222 3.7244206442122625 0 0 1
992 1 7.8177494845793 13.949372005822262 6.524246686485066 0 0 0
408 2 8.96871487504984 13.315144110924274 5.252734102790448 1 0 0
615 1 6.534449497367426 12.42719800866257 1.4856090865407643 0 0 0
1189 1 6.284858764428335 12.354315109422924 4.5510761394816885 1 0 0
1485 2 6.298123051515706 13.497481356796571 5.843506028504865 0 0 0
295 2 7.419218646962279 11.200651467670662 4.977476056416186 0 0 0
4964 1 8.144871294891264 11.101560164641478 6.576208339701047 0 0 1
278 2 7.031348830120955 13.353853397602101 3.2821158088057247 1 0 0
89 1 8.920964622079376 13.912819500799163 0.771735672724007 1 0 0
602 2 9.848774388944793 10.892903374725158 6.508666373209119 0 0 0
4983 2 9.802282311315254 13.175951850530703 2.2665111358692926 0 0 1
1095 2 9.870150736079925 10.418176778286956 1.1738839222076307 0 0 0
590 1 13.52155026998051 12.164284689299423 3.2352540529205434 0 0 0
5116 1 10.752296894570794 11.07919167685158 2.4489206538818933 0 1 1
4338 2 12.337022138630397 13.542478048203193 3.751425908630208 0 0 1
941 2 14.991880171861304 12.50315710609674 5.726303709647585 0 0 0
928 2 13.179750174360667 14.556372957663335 6.256817910954212 0 0 0
4492 1 13.030831520250814 10.928255300466413 0.6351893871025713 0 0 1
19 2 12.202312239811649 11.969031940710744 1.8542850209061228 0 0 0
264 1 11.414790808456067 13.61491864439753 2.327391673810252 0 0 0
546 2 13.351256214217072 10.699319067394788 4.074952454374123 0 0 0
548 2 10.35214040348426 11.18229943736661 4.106814273069526 0 0 0
4854 1 14.584130941273976 10.888592248674469 5.324342804062242 0 0 1
1234 2 8.444630065050879 3.743392442140291 7.497512036751428 0 0 0
4643 2 11.573188990998942 6.810877642888059 7.4568436443314665 1 0 1
382 2 13.071308829711894 2.45574272258947 7.407951042972398 0 1 0
4446 2 5.29877164611368 3.007977347400032 0.0021808350256193876 0 0 1
1879 1 4.555262828424782 1.2145431972208387 13.20162909243153 0 1 0
1247 2 3.721723015011521 2.5651683459099925 12.456526387522391 1 0 0
922 1 2.0527992579277243 2.756245673088431 12.74610996746499 0 0 0
1256 2 1.2272003107558103 2.619996386117592 14.359324762391426 0 0 0
1082 2 1.5998542505122493 4.025002129565107 11.571803795972023 1 0 0
437 2 3.06637264240932 4.212728004568875 8.543377360469204 0 0 0
688 2 1.2298250359998164 1.130415003803254 12.479117115772395 1 0 0
1201 2 2.4559639261017585 1.3485387885183082 8.269190299350704 1 1 0
118 2 0.3201074803157274 3.5478883393916147 7.909784197096138 0 0 0
127 1 4.774891874548929 3.9311893164189557 8.511202102250797 0 0 0
1386 1 0.2046470243395911 4.152696378017382 10.48320648469072 0 0 0
686 1 2.114138515911876 2.979069390781433 7.756642519403677 1 0 0
1986 1 4.8916889361152425 3.583662949771601 11.575191868205069 1 1 0
842 1 0.5458090397197235 1.1203209622164434 14.478157984653198 1 0 0
1158 2 5.264070244186349 3.1033620834055107 9.977625160695235 0 1 0
1592 2 5.729244537602286 0.8778988180536722 11.868409493275953 1 1 0
365 1 5.7436168135275265 1.6640018976882849 9.178975167310414 0 1 0
1108 2 6.58142399782922 3.49575334156597 12.511975567146626 0 1 0
355 2 8.851396707792789 1.8811920130672295 11.474524501511102 0 1 0
303 2 7.420698891146893 1.5449471137242974 9.117389886365123 0 1 0
975 1 6.610090977141065 4.1385163922202866 14.2050205664297 0 0 0
421 1 8.12590758798678 3.401358153853921 11.714052505829164 0 0 0
2001 2 7.936073699174834 0.9240269396150681 13.872816856595668 0 0 0
748 1 7.591633346997923 0.8722124177124971 12.101824944589028 1 1 0
2041 1 9.589662638348784 0.5583838395557116 14.072947517148263 1 0 0
1186 2 9.321640727734964 4.076287510932364 12.825206980875867 0 1 0
1647 2 5.2095135813470765 1.7711176122062284 14.660205946231764 1 0 0
430 2 7.928152077157984 4.328097730204677 10.233163536355104 0 0 0
5124 2 9.956380107790988 0.1656658973007883 9.306889768501675 0 1 1
919 1 7.598782637257318 4.6846803891200155 8.607243137378513 0 0 0
1159 2 5.193344283846162 2.5444991725038864 7.565421716850977 0 1 0
984 2 7.0895011452443715 10.025200199586335 7.60323516200458 0 0 0
1000 1 10.35416870510246 1.5124592165182453 10.342598064539805 0 1 0
377 2 10.88457044447253 1.751735699773494 13.650117392827374 0 1 0
1511 2 14.1250713978051 3.30085876410007 13.990559955888523 0 1 0
34 2 11.861615382463773 1.304516574061238 11.288983934435967 0 0 0
5086 2 13.901578825348869 2.8846260868021876 9.70720101367004 0 1 1
656 1 13.574181212420946 1.5803871188577314 10.812867576284589 0 1 0
865 1 11.017446932414744 3.448074788644229 13.186147057107073 0 0 0
1128 2 10.815207950649663 2.786342268403169 9.084753312027246 0 1 0
1282 1 12.37362256669601 3.4171625137436776 8.873882388460993 0 0 0
2486 2 12.054426063118672 4.15872306429034 11.98982099824718 0 0 0
1608 2 11.783426911063417 3.9854642919330274 14.667247772479984 0 0 0
1508 1 13.600994899624316 4.517705125206473 12.911733423643351 0 1 0
5138 1 14.622837069838376 2.6917066114382977 8.110288384931625 0 1 1
4806 1 11.662117803414239 0.3229568088828516 12.700306439138522 0 0 1
762 2 14.878071426694436 1.4383723488359241 11.974238541507297 0 1 0
247 2 14.64686979406188 4.681809239417737 11.620195375257119 0 0 0
4747 2 14.15245081016717 0.13893897091158397 9.934575961795801 0 1 1
1044 2 10.513226837193509 13.094030034908869 13.02289764927923 0 0 0
1248 1 3.613878349576724 5.237575510312776 14.889616322056014 1 0 0
1362 2 2.406552565540354 5.213263024927023 13.696165451550819 1 0 0
531 2 4.251022094347041 5.168257162278 11.571360168986235 0 0 0
966 1 2.6371267779087737 5.395854755887945 11.97756062520691 1 0 0
977 1 0.7302380558293653 9.745111190442193 7.982053004212144 0 0 0
1726 1 0.8113910257745368 9.531433440279304 10.777688840204117 0 0 0
1873 2 0.4814563942770567 8.49357864163576 12.159990878205626 0 0 0
363 1 4.349107996833289 8.310006208094421 9.077957276074939 0 1 0
141 2 2.764600727242587 7.139012595906968 11.896797761748102 0 0 0
994 1 1.8695700041069496 8.043689872695602 13.024309078237842 0 0 0
1052 2 2.7353105723482334 8.857162676593541 14.244289626534838 0 1 0
1220 1 4.507646379666926 6.836277431699437 11.708641116593391 0 0 0
927 2 0.8639847702089036 5.632438908805008 9.542634418640674 0 0 0
1422 2 0.6590991168900843 8.525118375506112 9.309986073020942 1 0 0
1229 1 0.8300501692361824 5.727234681962296 14.153968445013126 1 0 0
524 1 2.1990181408383407 5.735374823852104 8.462359189711622 0 0 0
1604 2 3.202570633517651 7.112019492179254 8.509711754252736 0 0 0
1584 2 0.9341006567470707 7.391444244940836 14.598508851273142 1 1 0
109 2 6.0400722765407115 5.138531976610382 8.075058315429333 0 0 0
867 2 5.164399193890247 7.675327301602219 10.415433738423422 0 0 0
1268 1 9.017537864842696 5.6035782950157245 10.437759315076732 0 0 0
1203 2 5.1580495590167095 5.194587884196564 14.306265888598523 1 1 0
1942 2 8.560333050921953 6.257246899942843 8.724590611272085 0 1 0
650 2 5.781025555009913 7.523195304027981 12.718206578144803 0 0 0
739 2 7.7888150865063235 8.639996443880353 10.496178983423178 0 0 0
476 2 7.566239336292548 5.711838219163599 14.310021576360798 0 0 0
1223 2 8.915851019306597 6.558542006858544 11.963237053825887 0 0 0
1261 1 6.267349852904802 8.659446118929743 11.36494207811429 0 0 0
968 1 9.268437104881034 8.08599053742534 11.244364008102734 1 0 0
1264 1 8.372477944597462 9.367087077516429 8.909203515040435 0 0 0
2209 1 6.1215984748793275 6.671294953566109 14.189192660019064 1 0 0
1276 2 9.63513132427582 9.103554393179953 12.487726720597232 0 0 0
433 1 9.070709133605744 5.690784537124684 13.379790445813214 0 0 0
1316 2 9.987101938654668 6.2214263742864215 14.767853712312768 0 0 0
1657 2 9.364584135267558 8.526940824920116 7.667850653974306 0 0 0
1218 2 11.88229979833041 10.117269639623421 8.280529541197264 0 0 0
551 2 10.408283652772463 8.191208030437005 9.931922377732425 0 0 0
4844 1 10.353749331652294 6.936045772250438 8.71868813396446 0 0 1
380 2 12.978176627573973 5.086185527289542 9.356728630842033 0 1 0
372 2 10.56449060764595 5.616821659865021 9.917538308578612 0 1 0
1331 1 13.072862504170626 7.220759804823397 13.06852026795864 0 0 0
1226 2 14.298099774334812 7.9307073395116445 12.088719534247435 0 0 0
2135 2 13.795083115206761 5.979066878391218 13.861414165011166 0 0 0
991 2 12.139112861352238 8.493354123378417 13.920566929961081 0 0 0
1653 1 11.98859847353893 5.4444133139704345 10.773553923732795 0 0 0
2058 2 12.14754610915156 6.948941221359975 11.574496974449236 0 0 0
85 1 13.122159807504156 8.2644676781521 10.90237070156656 0 0 0
449 2 13.594985357582567 7.78309183842946 9.313845283175134 0 0 0
487 1 13.081347676897655 6.540306521553765 8.226972740793753 0 0 0
833 2 12.05910753344523 9.787204159182153 11.212117703179343 0 0 0
1578 1 11.27657321678256 9.56664342952259 12.981965764122185 0 1 0
1588 1 10.952081351146916 9.885559322592918 9.703980179086704 1 1 0
1041 2 12.57615382667506 12.70249085243943 10.846160352899908 0 0 0
1315 2 4.761630105427166 10.152165414476947 14.89573536343196 0 0 0
987 2 4.679735599778232 10.00596838889763 9.534641039867353 0 0 0
5070 2 2.3979863864479976 14.722915358329873 7.856804542070066 0 0 1
917 2 2.345004688630743 10.198829565070744 8.22585627712936 0 0 0
1361 1 0.6901095809525707 13.951619649084385 11.180642367265047 1 0 0
1768 1 3.1734701078098673 10.452824732752651 14.41881809837038 0 0 0
521 2 2.263146864103724 10.477886047761451 11.029463556681455 0 0 0
1076 2 0.9271229845637092 11.42229697678371 13.325088835863246 1 0 0
1421 2 2.157485233816108 13.535658635870641 11.7418323330229 1 0 0
1083 1 2.064786455826832 13.243818923817743 8.738315157492533 1 0 0
1266 2 3.4274574561762856 12.520830675263241 9.52490795685872 0 0 0
1477 2 3.5058231352095524 11.577861467421549 13.155004947830843 1 0 0
1610 1 3.193047076454462 10.81001153125028 9.662937422526818 0 0 0
422 1 2.224219197034066 11.872903267102322 12.187756167357492 0 0 0
1021 2 3.9934079848727495 14.326455036871145 13.39249941760622 1 0 0
920 2 0.6217557287433071 13.263222863600195 9.639562007731614 0 0 0
1992 1 4.749240745037177 12.855141741955435 13.008929324436945 0 0 0
1502 1 4.630882212017426 13.662539848747002 10.011992764352915 0 0 0
438 1 1.3057007698780778 12.250198585441243 14.882869797960911 0 0 0
132 2 11.299353751757797 13.85479454906268 8.491145172460453 0 0 0
1154 1 3.0574241045541823 14.926944062441928 12.051366272636303 0 0 0
603 1 12.794301987455043 13.523258708244525 9.321883606272882 0 0 0
2498 2 7.554399903428275 9.901099287350664 14.383808634687432 1 0 0
424 2 7.9482288947561734 14.828638630433925 11.770495366119313 0 0 0
812 2 6.955705477339481 14.694555534770158 14.52645956312135 0 0 0
931 2 5.969698808976716 10.194148379403078 12.138845698829671 0 0 0
1371 2 5.394853222026412 14.082071812724019 8.455531030687036 0 0 0
1380 2 5.377416213764196 12.913030251059876 11.368002550744505 0 0 0
869 1 6.049103066448368 10.5324334918609 13.861945284673167 0 0 0
1770 1 5.762087627036552 10.94986375799091 8.55718976403937 0 0 0
1162 1 9.006931329315202 13.293267652999578 11.947770785175928 0 1 0
4782 2 9.441879720279568 10.638801285597209 9.29675269117039 0 0 1
940 1 8.537628668871967 12.051584902405079 9.262380327529476 0 0 0
474 2 9.417938545214211 13.0423541267272 10.30777728704188 0 -1 0
655 2 6.080093501748951 12.273976006744187 13.997831640534445 0 0 0
1045 1 6.692404835426915 11.594326645613162 11.40143498804389 0 0 0
1722 1 8.796057130330503 10.307879809432942 13.255256255547565 0 0 0
1211 2 8.227574462663625 11.749618089663171 12.33544603995005 0 0 0
1836 2 6.879464202994948 11.588412017137687 9.710753129798949 0 0 0
587 2 8.074910986180772 12.581147033104028 7.6560184257226425 0 0 0
4913 2 13.674551612935623 12.496541353953045 8.108120532022836 0 0 1
1061 1 13.52280217980638 10.755883142026823 8.12514547317501 0 0 0
990 1 12.017982153320194 13.694319462142422 12.209890301644618 0 0 0
932 1 10.374781942820631 14.326711767111053 9.79028359296629 0 0 0
1733 1 13.305707327744352 11.10990995068505 11.25495146589911 0 0 0
136 2 11.286477922158166 14.886905585624294 11.166849321672787 0 0 0
1107 2 13.167030132232565 14.072336744928972 13.314826267213546 0 0 0
837 2 14.230502332335965 10.426815077701868 9.917367857166562 0 0 0
1670 1 10.483543009198897 12.265066931883844 14.571101699473482 0 0 0
1835 2 13.884383019277633 10.765400490449677 12.779938865898835 0 0 0
1721 2 10.381384917425876 10.737282140272853 13.947497358900723 0 0 0
145 1 14.34806978960274 14.227678827700561 14.47193377113676 0 0 0
420 2 4.886224615838441 8.546316313708063 7.5090227022688705 0 0 0
417 2 1.3924086483442686 2.7452887769223198 17.430350041498585 0 0 0
1710 1 2.8298714703437113 1.6404976263518303 17.589621986127273 1 0 0
1546 2 2.3074688049178587 2.325627940443345 21.503033615478344 0 1 0
907 1 1.4056383613004901 4.14309964676219 18.441442186287535 1 0 0
705 1 4.050568779756902 2.201987071041828 21.617610178097753 0 1 0
1901 2 4.268017677327515 2.595370343503489 17.65256976934281 0 1 0
1999 1 4.404218736541546 3.822780059993954 18.883776865412276 0 0 0
1595 1 1.874728003997079 0.9677751425777513 20.46134616573852 0 0 0
1161 2 2.888291001395598 0.7000267595956223 19.038710515858806 0 1 0
1302 1 4.196824077165294 2.436159469080021 15.872025921952295 1 0 0
703 2 2.9540470479929293 1.2947467705126112 15.880295835439293 0 1 0
807 1 1.6442052916000847 3.421156132530375 15.794810291805302 0 0 0
2099 2 2.903506671525726 4.693091140418133 19.036103882681598 1 0 0
2222 2 3.3064962864674876 3.8850103812548946 15.748901492146322 0 0 0
1356 2 4.8951716932050955 3.2516744407393334 20.552181020433302 1 0 0
1436 2 4.289709288457153 0.3929385653422279 21.420774632998693 0 1 0
1359 1 4.828729478070502 4.523962667900324 21.879711164394088 1 0 0
1698 1 4.5301163618369085 0.18833881322754978 19.646533402391654 1 0 0
2381 2 0.6841329187107694 4.849544370447097 15.69644739702044 1 1 0
1646 2 0.24068825245623757 1.3661293237714442 20.281809418324446 1 0 0
2022 2 0.16373110370044128 3.666213803470923 19.465846093437012 1 0 0
1113 1 12.700066457411527 13.226178409546902 22.35255745444927 0 0 0
1349 2 7.132920425251257 3.0792989552240826 15.499809514984555 0 0 0
1487 2 6.78819842171659 0.381678027891326 16.412831235460327 0 1 0
315 1 6.477256025346503 2.8043750843514936 19.69957899437826 0 1 0
1593 2 6.0662437641250735 1.1060113892903913 19.207227198234058 1 1 0
2129 2 7.877448167120304 3.093853461675211 20.672941434595618 0 0 0
32 2 8.306178144411392 2.411144550512401 18.198194823655015 0 0 0
819 1 8.277575134986515 3.507429236141272 16.83738091767963 0 0 0
1606 1 9.25622433589683 2.7155769339894933 19.60674156189455 0 0 0
810 1 7.333739118676516 0.7898864923810212 18.11506937602736 0 0 0
805 2 6.104647001226504 4.278144494582352 18.857562164472913 0 0 0
1155 2 9.756974204555734 3.358893049638663 16.021645532665943 0 1 0
1639 1 7.930618683726255 4.596387085778476 21.398304255317754 1 0 0
1294 2 14.897801579846359 2.9051564902918456 16.74787426131025 0 0 0
2072 2 10.085267622574902 4.241830146021697 19.495200510020858 0 0 0
2313 2 10.267276640459945 0.37247271708418017 15.614889530550693 0 1 0
2073 2 12.642628173002969 0.32227910599801346 21.2865280823582 0 0 0
1563 2 10.406304906048156 1.5357542183071546 20.017210452302486 0 1 0
2768 2 11.764183697919037 3.275655696917996 21.544907809388757 0 1 0
1337 1 12.163681354034757 1.8280672311602593 20.59031621404161 0 0 0
1939 2 13.410497065142142 1.9400061966884325 19.187617604225927 0 1 0
1615 1 14.412048775325879 3.292889931135284 18.574148044553144 0 0 0
1936 1 12.96874586524093 1.2604496320629615 17.707978098765814 0 1 0
478 2 12.472417263881166 2.1746958961549945 16.358825428946645 0 0 0
704 2 13.208800870374652 4.441862148655321 19.073109503923064 0 1 0
1309 1 13.435614342935445 3.405509735649438 15.581898760017394 1 0 0
593 1 10.703623353018983 4.8744683595409315 15.656228788618243 0 1 0
1561 1 10.89147856143301 2.096024157413509 15.572392737031207 0 1 0
1222 2 14.552887944383258 0.3125475635282942 17.220625134754957 0 0 0
2006 1 14.023052409343034 0.31731284106166946 22.248074614285695 0 0 0
1762 1 10.825623198543594 4.654710291929607 21.033135522096146 1 0 0
2366 2 11.601034740678836 0.23702331779390814 17.8541452281837 0 1 0
1706 1 10.340751312218865 0.052120020384557535 19.048572314489764 1 0 0
1152 2 13.870119327438015 4.846662080368935 22.146802682471694 0 1 0
826 2 13.475819608096247 4.964912825087162 16.433570596530828 0 0 0
937 2 11.711608669322313 11.114738103370987 18.503885331785987 0 0 0
2069 2 0.8963819519940367 6.0786913780558605 21.023076135166807 0 0 0
1191 1 2.5443476625973913 6.124610944647285 20.230449443324343 1 1 0
1681 2 3.726269345217662 5.913534134356969 21.41277597838608 1 0 0
1304 2 1.1793223395543393 8.726213482968321 21.889089700104215 1 0 0
2056 2 2.360347984966627 7.518916955962941 19.156318645797356 0 0 0
1213 2 0.9534191286967579 8.263045238169552 16.844609332273713 0 0 0
1369 1 3.226557758132729 8.908053451485301 18.646515949022845 0 0 0
979 2 4.6003416525133005 9.392796156274985 19.535466428653265 0 0 0
1792 1 4.321673831349383 7.420168740966691 21.860715823173052 0 0 0
1257 2 3.8389804839216466 8.67542624576019 16.99976440551495 0 0 0
1754 1 0.8060658514950448 7.5905322902913435 18.518785293101775 1 0 0
1798 2 3.6056443264303946 6.488918623817989 16.066307666723738 0 0 0
877 1 2.5281451522473937 7.833469301669343 15.741241186010134 0 0 0
1286 2 0.27338022441239385 5.81779723318584 18.38896257885455 1 0 0
1375 1 0.2724613577731576 9.677244181776322 20.883342394781366 0 0 0
1673 1 0.6839009590390628 7.133545484697168 22.40324429560138 0 0 0
2030 1 2.836816910544868 9.095406611561886 22.265385742060783 1 0 0
1634 1 4.955842695018489 7.298284918961614 16.848434886387277 1 0 0
1709 2 6.472244941582598 5.086121719110146 22.090680858484422 1 0 0
1307 2 8.167175704874126 5.3550700696056595 17.217025719678183 1 0 0
1224 1 8.509584802850217 6.441513122563334 15.82671971329131 0 0 0
2154 2 5.688409455036777 6.968501357695043 18.440707923383098 1 0 0
1688 2 9.419029015205389 5.297718930595834 21.95922987510417 0 0 0
2037 2 5.920668735132697 7.5937432022817255 21.160099393747505 1 0 0
1217 2 8.697951904277916 8.021849370911632 16.58356646517734 0 0 0
961 1 6.890274048659036 5.683339868553646 18.57956718569863 1 0 0
1619 1 8.65702578812911 7.763742066149606 19.869285343894084 0 0 0
2015 2 8.131332612883964 6.059535039810019 19.757046165657552 0 0 0
1687 1 5.975034802475489 8.258948348342873 19.63131491177525 0 0 0
2193 2 9.319010774254043 8.229568741653459 21.33230973715674 0 0 0
1887 1 9.635443497990595 5.56994593517246 18.565621256661895 0 1 0
1874 2 7.543896153734201 8.96655451320572 19.419537894053626 0 1 0
1270 1 7.3901129465101825 8.993907375423591 15.957556447836257 0 0 0
2159 2 6.2179974561260565 7.594182085058708 15.66238235941091 0 0 0
2402 1 9.445099651649246 9.874161712589594 21.953768744973072 0 0 0
1202 1 7.225320607777699 13.110678360773502 15.036975083264267 1 1 0
25 1 12.51757450230919 13.229576403747226 16.537703994320825 0 0 0
879 1 10.031994248736105 8.770812057310405 17.42048714178516 0 0 0
1212 2 10.138683644653334 7.611691879257719 18.79726597510753 0 0 0
1786 1 13.391884236934171 5.392309289910546 20.58053364148627 0 0 0
1265 1 12.808353160534299 8.867595789985023 15.492249862960092 0 0 0
1293 1 14.275351754895777 6.118570261403908 15.478846501332308 0 0 0
1618 2 10.950436535551308 5.43258137294794 17.289681064145306 0 0 0
2524 1 12.582678268393162 5.396017994059021 17.761777970896325 0 0 0
313 2 13.873883736046363 7.717873786161106 16.037566011833825 0 1 0
872 2 11.507577137777888 9.02463014091535 16.698055263422564 0 0 0
2630 2 11.751081793470854 6.00093478053893 20.613226549312756 1 0 0
1674 1 11.77397805266396 7.404155468951212 19.676295240956794 0 0 0
2065 2 12.90659890732973 7.021077068253385 18.494178829555363 0 0 0
2942 2 12.522386082457544 8.54593341185317 20.810269820848127 1 0 0
814 1 14.193813690615691 7.9374219624036755 17.750770004441872 0 0 0
1319 2 13.741019100540235 9.410927458492225 18.47627854461125 0 0 0
1838 1 13.777679878593673 9.594227625482874 20.1356034498596 0 0 0
2354 2 14.880447044863468 6.308347799199746 20.65258209343083 0 1 0
2163 1 0.37201482571941885 14.473253831926003 15.467763474622265 0 0 0
1414 1 1.2570695276605774 10.111889665224961 17.002423835905628 1 0 0
2156 2 2.2636080226573774 10.329343897083639 18.31964073852911 1 0 0
1809 2 3.147711291830512 10.612342710707857 21.735801513730248 1 0 0
1751 2 2.06474053318517 10.992373265182659 15.659041947167822 1 0 0
1829 1 3.4821293763794143 14.476045668228844 17.82377865034742 0 0 0
591 1 0.7251821414081475 14.025673195425908 18.423542680917592 0 0 0
2635 2 2.294268565568863 13.28845793083836 17.942497006890495 0 0 0
1514 1 3.1019997873524456 11.868403791774575 18.37300802071753 1 0 0
1364 2 3.482197360211046 12.1034661182614 19.957157276670447 1 0 0
1373 1 4.4496639642886375 10.713670639736428 20.64133734025653 0 0 0
2054 2 4.563354502193316 11.567848538862474 17.441791075217687 0 0 0
1196 1 2.257557295593445 11.936495545481796 21.22995028649505 1 0 0