(written by ASE)

1369 atoms
5 atom types

0.0                      20  xlo xhi
0.0                      20  ylo yhi
0.0                     120  zlo zhi

Atoms # atomic

     1   3      7.0841132359834136      5.0554732964023055      39.421970536941863
     2   3      2.2387923818883952      3.2026078531756608      40.329949032052049
     3   3      6.4231015174123751      8.0053560281910805      40.007647422651871
     4   3      8.9757561899340814      7.2682434747160869      40.267700939766783
     5   3      1.6644845069503234     0.48757461082807219      39.463687439283234
     6   3      6.9549765959529628      2.7883073938246579      40.741207876488524
     7   3      9.1433342389882561      1.2447908206901381      40.597149688617741
     8   3      4.2815583155409831     0.91322764908649212      40.741702077018985
     9   3      9.2054827933344239      3.9774118467607176      41.076740766630422
    10   3      19.839515281527898      1.5100379337344894      40.566481356981527
    11   3      10.198558365061107      3.0499078478946262      39.009763065896429
    12   3      17.669725750258628      3.0912317922404009       40.07708553515279
    13   3      17.139661082539355     0.86756659919389656      38.980709357987685
    14   3      11.613295661770236      7.9082515159421582      39.537701217964035
    15   3      18.148863163825112      6.2749970322366586      40.072744900129727
    16   3      14.133800591900281      9.0283634948192102      39.726103386865525
    17   3      19.492890367383751       8.397569244284897      39.422769564041388
    18   3       15.24134458224478      3.2062559393961165      39.645738552772315
    19   3      16.705620227087774      8.9307150835267084      39.536360241735828
    20   3      13.129345228485425      1.9663761314914632      40.282330451706819
    21   3      12.720295318028594      4.3381177610221808      39.044849917878309
    22   3      4.7427363786852803      9.3767783498600252      41.297019594479359
    23   3      8.2648913042639442      4.2185219426022647       44.21936878427266
    24   3      1.2336296554565926      7.4901342654117897      42.623164367584955
    25   3      9.3350920999674329      9.6866123043559185      44.310112698403316
    26   3      4.5771046044291035      3.8855711380600866      42.700252145788831
    27   3      1.5812033127830174      2.2306117973380508      42.950274033209396
    28   3      4.7499543995046238      1.1005415767050213      43.210821093487027
    29   3      3.1964674928444126      6.0401731399844945      43.670876787752782
    30   3       6.570968833625952      8.1315370085832601      42.882299510249382
    31   3      7.6809477874287024      5.6488526519683289      41.730794744896215
    32   3      9.4017302390892592      6.5062903731874311      43.348486308461872
    33   3      1.8241138930997927      4.9107958582078055      41.953182696884539
    34   3     0.57313508603027286      5.4120933447983983      44.228018736811485
    35   3      4.8278068614480389      6.5772877699075547      41.589292224990402
    36   3      6.7604204421532241     0.38468042093612215      41.903537021803466
    37   3      5.6804489592640675      5.8429288907086381      43.902641245317128
    38   3      8.2723603611901364      1.5275551316309279      44.217264630014071
    39   3      2.9734310472195786      9.0067145634998074      43.950242012048861
    40   3      5.9916128465272314      2.8945068376189735      44.662578565380429
    41   3       11.80123444169795      9.7044272819413351      43.488816303281276
    42   3      13.215314499809194      4.4475227447907031      41.587759134820558
    43   3       18.27837129086431      8.1860349190494581      42.144199169926168
    44   3      17.722882545896471      1.8422715161295324      42.366785504695642
    45   3      10.954359237374947      5.9368261134674762      41.592402076637946
    46   3      19.722350056178342      3.6451283497083509      41.689493221871366
    47   3      15.971129202990495      7.3980059430905243      41.526067662980523
    48   3      16.774440951812821      4.2081883367466855      44.676511124544959
    49   3       12.62788174631579      6.4073333504825625      43.795571486309214
    50   3      13.105577068257137      1.9691419376064134      43.735868921137573
    51   3      16.163183773559339      8.6999071182774657      44.165627991923841
    52   3      10.658906121825893      1.9795727649969352      44.682010544344074
    53   3      15.669434633957824      1.4146596559881142      43.855157227761737
    54   3      14.084893697553911      8.8248763208568555       42.72426551478214
    55   3      11.137867489809381      2.3662377999247655       41.83316094979007
    56   3      11.467932775780307      4.1843541388662988      43.650421766473201
    57   3      17.613527893727209       5.665432081612253      42.698038643668035
    58   3      15.262083793477306      6.3857337516674004      43.804216685640831
    59   3      1.8108559368905086     0.44598070190948802      45.273056018912435
    60   3      5.2261623864121223      8.1566946987602442      45.201679487899312
    61   3      3.4118234005092596       2.700001076920822      44.768808998996889
    62   3      14.105654276223429     0.35236886363172132      45.735208887899581
    63   3       17.39485171689828      6.6629526217512547      45.270879800132562
    64   3      11.046347957947107      7.9806287163308838      45.289059364385395
    65   3      1.0034352095893557      2.9744912726992641      45.495471190877886
    66   3      7.6218281586175518      6.9600172281649497      45.074103667088444
    67   3     0.39978884085113048      9.0640792133860177      44.664768536221075
    68   3      18.082325437079838      1.9979394427853796      45.057291655596124
    69   3      3.0381235858109656      8.6584860582632377      46.680939738598553
    70   3      1.5137588736268004      5.5888586344263071      46.550785236285591
    71   3      7.3371165148323714      1.1019749516156856      48.387130186943367
    72   3     0.61400546903256481      4.1465667373904687      48.298370616944979
    73   3      2.0982411931603453      2.0581312259363607      48.962902903545803
    74   3      2.8079447904464399      5.5936913723734341      49.087905248329591
    75   3      9.3946811420909704      5.5056913371701324      46.159337626303113
    76   3     0.42911788436862108       6.738873879337719      48.752109340454879
    77   3      3.7319812758318771      8.7741225732730541      47.813922585499149
    78   3      9.1456556172182424      0.2450847348428016      46.375750650562232
    79   3       13.76731544339524     0.10103713889947485      48.669488085289323
    80   3      4.8469467435711246      1.8973485923764144      49.173739075417998
    81   3      14.475234721373207      2.8586824866601477      45.845740897546769
    82   3      14.438940553090287      4.6288832584736479      47.722116309108188
    83   3      14.461835480766103      7.0662003008270311      48.676953262008752
    84   3      15.912771972250095      8.2256402819581016       46.89632068620908
    85   3      10.097865593677644      1.3713255597759413      48.424848783216177
    86   3       10.01725046754699       6.086211695620662       48.69126295446177
    87   3      18.149620216592105      9.2111546944761518      45.877099682838967
    88   3      15.027228438548727      2.1661333750861278      48.527439123235631
    89   3      13.473311895004453      7.9141743347894344      46.159736700138573
    90   3      14.017560307005681       9.531158582256289      48.560107023971355
    91   3      19.516627173454708      1.8056355540087154      48.695194638279624
    92   3       18.99429176107477      4.4603637621787104      46.039091126082965
    93   3      11.832211625529778      5.8518360334183841      46.496629164247814
    94   3      16.818972537465832      3.3061926989729695      47.123042317367762
    95   3      10.784413010013026      3.8472070174427797       47.86249358753075
    96   3      18.096736154187219      6.7950585378214177      50.259517214982772
    97   3      15.985006231095609      5.1311180190723826      49.775204878947257
    98   3      7.5986179609301852      6.2574461396550562      50.048736130948662
    99   3      17.765522340005376      1.6997411300762499      50.718615237668033
   100   3      3.5029282736859706      3.7140413911584162      50.374329451036743
   101   3     0.38395072844168548      3.4658311840870049      50.642395319087413
   102   3      3.2939697555704228      7.0627395713519947       50.88825899902394
   103   3      9.6158589758524258      8.1211097859924575      50.176391627671187
   104   3     0.33641631279256795     0.62116262443162495      50.673461152339186
   105   3      5.2574790887182612       5.397516573087568      50.441584650017347
   106   3      19.963075665307919      8.5322331156726783      50.528525025208424
   107   3      10.018970225853055      3.1207222621123032      50.397817433360238
   108   3      6.1686808346155626     0.18913146925904858      50.663811922773462
   109   3      12.405110321014172      2.3343355890956237      49.274613405590742
   110   3      7.4493180289537673      3.7524439860439829      51.023092349739983
   111   3     0.33437606157251337      6.0382511257673297      51.472318634808381
   112   3       2.888634345688966      1.3252683276470834       51.23849489613977
   113   3      14.041350116690889      1.1769755326717113      50.971187597487031
   114   3      8.4333576157210395      1.1323216163598959       51.07558411572272
   115   3      18.087966672002295      4.4777413901082763      51.420941939930835
   116   3      9.6978216033445914      5.7444919634447276      51.479706874078595
   117   3      5.4011559038854253      11.854724117641656      40.268130112732607
   118   3      7.9469794440901573       12.23829752748782      39.929554314198853
   119   3      1.3669423747156559       17.09814081026741      39.631308110100001
   120   3      3.9917767103114521      19.097434103130698       39.05035277689192
   121   3      0.3039061651694942      14.702128840060098      39.475813049659926
   122   3      9.0570359092215114      14.857937512115553      39.566114687916148
   123   3      6.6119706434804826      14.401901905521539      40.605622895169887
   124   3      3.4441871848521681      16.815056892956758      40.695900175137524
   125   3      6.8904024614344124       19.85088143331247       40.52033314535926
   126   3      14.746258537257457      19.969967281711227      41.221821959086036
   127   3      2.9502988196837783      11.409134052464578      41.188658534985407
   128   3      15.506352463126563      12.401624549254375       40.55800998333028
   129   3      11.941429210420502      15.634541776924298      40.757344351579022
   130   3      15.185654329304407      17.376667494160042      40.133194041709089
   131   3       12.60358657469892      13.101025392969374      40.160745607465891
   132   3      18.631491616298685      10.342502037156736      40.971116756434391
   133   3      19.336707972377351      19.201101820759742      39.653902874312223
   134   3      18.540573775078457      12.734665307196158      39.764855461733063
   135   3      17.747621944993039      16.412457628057119       39.95842371890528
   136   3      11.936755862744208      10.482816552903371      40.281398097775615
   137   3      14.057945578797543       15.04461901616666      39.157059748309777
   138   3      10.331809780821695      17.811423687289505      40.245217553353875
   139   3      12.626146969547882      19.071567548796676      40.189851013228044
   140   3      7.1348510312215518      16.574725259238853      41.155501520626885
   141   3      1.8292617116865006      19.028843919850051      41.294871051708455
   142   3      8.2200218334650703      10.981511965128661      42.243259823601278
   143   3      2.1192543213893922      12.487955956807681      43.507725494188392
   144   3      5.0622969481451587      11.524791266381234       42.85030149614537
   145   3      5.9977219409180202      17.076103322328645      43.550167863355568
   146   3      4.9553719123564965      18.572603879479594      41.968541924485031
   147   3      1.0607962443228156      10.196972314422501      42.430073789609203
   148   3      2.6466220051523766      17.221894181850391       42.82989698761147
   149   3      8.4271940464274095      13.716349816427211      41.995204949453992
   150   3      9.4781693239823923      15.904596764436398       41.85863526412497
   151   3      6.7993957949611969      10.622816880267097      44.524896475844578
   152   3      1.9349755690130157      15.102611685265243      43.810679633283392
   153   3      13.694100296738549      14.943177624540587      43.236379960649586
   154   3      16.903586106752844      18.990815435618412      41.432712914731283
   155   3     0.62300729036320646      16.693609941291641      42.012508381423714
   156   3      14.825282838779295      17.521118685036935      42.694262367189069
   157   3      13.196780426620879      11.529857253167604      42.224223206565398
   158   3      10.211198617180141      19.416551465994687      44.183390754679465
   159   3      14.145802815008359       10.83564244832321       44.55934618458177
   160   3      8.8206944604213895      12.325913362161744      44.487689568894382
   161   3      18.544529876048614      10.595298750800088      43.606567877283361
   162   3      10.490170021501077      12.140241011450703      41.480034392194085
   163   3      15.766927465742688      12.517450389033078      43.339384243396999
   164   3      11.383159873223343      17.521210354428739      42.586978536228287
   165   3      18.079642818794245      17.207722187776731      42.521354991415201
   166   3      18.741420325821039      14.594295999966359      41.663133272067029
   167   3      17.683144173898913      19.615662385917904      43.854710403338458
   168   3      16.271135702320443      15.401949067162985       42.05845254092705
   169   3      12.627395198276501      18.624029004326072      44.560034724056123
   170   3      19.658282493432356      16.190663483395845      44.152733776270139
   171   3      19.566749793176385      19.498226017967653      42.120200095681255
   172   3      16.373893932321401      10.260575884635729      42.136363512166021
   173   3      9.5456176355979832      14.760884391385725      45.191157017986221
   174   3      1.5217101966167379      17.712107611301601      44.880447453420302
   175   3      11.976493204095469      12.880773082419967      44.737274515288561
   176   3      0.1772777057047337       13.44059364883373      45.027280305541566
   177   3      14.310344735766467      13.399056749322114      45.357324937681582
   178   3       4.158073387663153      16.123494745336941      45.382845706055882
   179   3      4.3081030288448279      10.691448368662606      45.398785465954155
   180   3      6.6955190207071889      15.381391962046136       45.53328305387906
   181   3      17.643252010915266      17.057573712591918      45.644546035112285
   182   3      5.5877766262709629      12.940486243886237      45.047934423057896
   183   3      10.416439997865696      17.175930291556334      45.181458370229358
   184   3      12.270362440700264      15.229047205586133      45.511525555675441
   185   3      15.576419571849069      15.844164423104496      44.749616167731226
   186   3      4.4024569964998523      16.063074124088569      41.583651547324088
   187   3      0.5409811265438258      12.740433055581395      41.520092533100019
   188   3       8.976180380187575      19.044520108217206      48.949490716245215
   189   3      2.5676631308179405      15.952304322181767      47.371624190911291
   190   3      1.2859921193511068      18.424567013209959       47.27161606319013
   191   3      4.8791403009607563      14.422080371837787      47.204083077229299
   192   3      7.6095736433733707      13.322557511512834      46.616179507508576
   193   3      3.6342077142967044      18.771770247520678      46.313002410462211
   194   3       4.981551354870323      17.156290739548901      48.333655240529296
   195   3      6.0495758742108618      17.945824865686699      46.052604115744842
   196   3      5.2576679705801785      19.631033854984629       48.09644237074761
   197   3      6.8213609712394438      15.373077254929193      49.002614339704373
   198   3     0.76172713181496821      16.115145872688267       49.06528046841342
   199   3       19.92153679922513      16.310499581314268      46.678414191580657
   200   3      2.7181172514254133      13.714644961023357      45.861901990924494
   201   3      18.187046049062889      15.181033893035877      48.952661963120846
   202   3      11.481439519511552      18.973406808449703      49.357360349745036
   203   3      19.819073763056714      11.366761592983895      46.022527303703491
   204   3      15.040413658551719      17.960043802974873      45.850863053769196
   205   3      16.300666751698358      11.822031608127894      45.882015937276108
   206   3      18.297599114757663      14.389518199298088      45.917218828506961
   207   3      10.530222177406714      15.752586262619035       47.43208758870324
   208   3     0.22823884461148125      13.750783575975571      47.706374777718764
   209   3      11.921521689452884      14.471422920207779      49.220364392382564
   210   3      18.245284524065255       12.29089184281241      47.617411310964215
   211   3      12.822675856408718      18.390082717326859      47.147615563847708
   212   3      16.040097121212938      13.672644151436572      48.058682965587991
   213   3      11.381810739832339      10.517592200842758      45.929057730062738
   214   3      10.090355406545404      12.671102044049984      46.693158846622829
   215   3      12.379423196260259      12.540244196665666      47.449504581299365
   216   3      16.067328621514342      16.146498931151754      47.611744384170841
   217   3       15.97835231248656      11.149616375883248       48.35365574159156
   218   3      4.9168300721953777      15.833966573969686      50.688777020242796
   219   3     0.05657719220652286      13.885018900572847      50.274094100865881
   220   3      18.304093297801035      19.333138411537476      49.699235498769468
   221   3      6.6649848379017396      17.717642732486134       50.47610702488744
   222   3      11.187690597695211      12.275653635819319      50.156694107394401
   223   3     0.57095241060623358      11.177658373632282      50.416825266858311
   224   3      13.625106243123126      17.378530364970139      49.562336630455484
   225   3      7.0759365676034802       12.99456129331594      50.389713419147739
   226   3      9.2753445496083362      14.375460172197165      49.400995279249109
   227   3      16.023239777123834      15.160089539544341      50.373144684168444
   228   3      10.245132418523522      16.763130384228162      49.631759503745535
   229   3       13.79392954179613      12.117509678994578      49.552647614454074
   230   3       15.40070569456873      10.640211499755827      50.875754079543256
   231   3      2.3086748995597635      12.855735067856529      51.298576027796734
   232   3      7.3408152534800353      15.190188630694719      51.467527067402017
   233   3      8.9551350501064029      11.827275861315432      51.600858666314565
   234   3      10.046542342442219      18.374163127701692      51.521126597773943
   235   3       16.57391748867941       17.63131849040122      51.094752749330041
   236   3      19.285995046890136      17.508599380978769      51.335075369240364
   237   3      10.879809490763364      10.075530276499947      51.514175808392096
   238   3      0.9708183723269217      4.0539034731884831      27.008823727084753
   239   3       3.758011785006099      1.2413894888543062      27.966145254513449
   240   3      3.6270355003376231      1.5624595331580193      30.631532284968152
   241   3      2.2324512414078832      3.0797849458150055       28.95702133809176
   242   3      1.4105566737925879     0.59645645411010806      29.466546917605022
   243   3     0.22380363795295849      3.2457213377725767      31.603525776076019
   244   3      8.1654036314518574       4.041359159271761      30.208923769572344
   245   3      9.0154163728820684     0.49304289103306537      27.684797780773373
   246   3      5.9690057766177098       1.181284494561867      29.431800752985662
   247   3      5.7183309797411894       1.453864107640094      32.205402704898425
   248   3      6.0628806107485254      1.8477936345388457      26.827271246245619
   249   3      5.5787386310464466      3.5536964147347216      30.751580049623854
   250   3      9.7443591993576781      2.0348602754311909      29.663430912191089
   251   3       1.952493041480291     0.87906970212839886      38.512855255864366
   252   3        3.55292846922789      1.8012177995407197      36.714672796677775
   253   3      2.5073996376675463      3.4369385255747846      38.609644682695183
   254   3      1.2421679222913447        3.41895114898605      36.301099582093173
   255   3       4.424387186987035      3.3326483626949788      33.870570785804972
   256   3       3.822517876241482     0.87418004245207248      34.166457631524885
   257   3     0.55896105622048375      4.6082025067762098      34.077348692238338
   258   3      3.6886974115778886      4.3493735427657176      36.190697363923043
   259   3     0.49906771167207181      2.0544454665212668      33.984913295683725
   260   3      9.1485723284944349      2.1347794767062047      35.008028031667422
   261   3      9.8553656175742805      3.1737698910705814      37.296916848894313
   262   3      7.4977611811327627      1.1702584236232079       36.83955511241949
   263   3       6.288257134785753      2.0243582992823752      34.804852062382011
   264   3      8.4866105721965859      4.6521677209050569      35.483598289073043
   265   3      1.9083154771459621      8.0236664125989225      29.347633164229727
   266   3      4.1571196671160768       7.029986577644963      28.421218668062064
   267   3      2.4542178261294327      6.4307584316184938      31.550873900527549
   268   3      2.8173332724499387      9.0920076977833162      27.136463529776474
   269   3      4.0642181841861795       9.586331037695393      29.397516620449903
   270   3      1.3469914175966233       5.505758939061395      29.253299272281609
   271   3     0.58628477662925482       9.855375200569263      32.004181451404349
   272   3      6.8499082040162262      8.3776016853974049      30.853258899398892
   273   3      4.6817455948846103      7.4751573201674981      32.074122125179855
   274   3       6.055926688489679      5.1556470520492335      28.862878622040231
   275   3      6.7076259750053691      7.7760175947057331      28.262541373137143
   276   3       8.571233516431942       9.464701567818901      28.986213939741454
   277   3      6.6077627758941579      5.7479912349491515      31.400955742144951
   278   3      9.0659390993967399      7.1756534901875311      29.620012579858884
   279   3    0.031438041979803266       7.213656257493561      30.879003311240425
   280   3      2.4981405348205246      8.4799368928311321      33.316385526139882
   281   3      3.7198065623648939      6.0299885433777201      33.976533177219501
   282   3     0.48563699247348768      6.0591064398259231      36.543084985774527
   283   3      9.4197962922317799      7.4718580275496382      34.228016091527358
   284   3      9.1746410362329467      9.6558058833075897      36.959698054499597
   285   3      7.8126391506254045      9.4953834278554972      34.707354810681672
   286   3      6.9111428803800479      7.5361895371641392      33.324846369389775
   287   3      7.4634347930066802      7.0691928330037257      35.940428411680429
   288   3    0.041151337811338173      8.4287886702255577       34.05603971486218
   289   3      5.9364789532036477       5.040377151207208      35.171125505566096
   290   3       6.935705786799363      5.0050312925100284      37.623951315026318
   291   3      2.4410187372948791      11.430166679256361      29.919433238079833
   292   3      0.8650173289323454        13.2518601624213      29.013713147813682
   293   3     0.83146470590000909      10.574637151553688      27.917993749544461
   294   3      3.9213863452151303      14.659099352232509      27.384099879686893
   295   3       4.383505267563593      11.614583438371167        28.0540463410298
   296   3      9.1284117739053876      11.251880915676919      30.730732036520479
   297   3      8.5344927709633609      11.777711389274097      28.132590589782701
   298   3      9.8196706339361821      13.661252196055493      30.670305625108988
   299   3      5.5044504751435843      13.740929311407443      29.447711515133367
   300   3      5.0304889654488711      11.668123389084489      30.784564894220971
   301   3      5.0817996839365485      14.004297321479442      32.189582692056909
   302   3       7.339726556500513      12.983558172493472      31.336019082364274
   303   3      6.4354411662680944      12.561634134528587       26.78462674965057
   304   3      1.6245788345023562      13.345559039300241       34.35620209585759
   305   3      1.4905938910578984      10.726336664409926      34.408061424734669
   306   3     0.11989033987938165       14.69030878581137      37.496359451811763
   307   3      5.7641898039047357      13.649589687724063      36.732949225844905
   308   3       9.105514986435697      14.494529406837497      35.034986173956511
   309   3      8.8501102220295991      11.949585799458157      35.458173178285634
   310   3      9.4973556499716327       12.61985479653193      33.051082110511643
   311   3      8.1567698118581138      12.651177059782608      38.084825518527019
   312   3      1.9482823015857513      17.411817441677805      30.139857659315084
   313   3       3.468750602294759      17.537683495668201       27.90642696902772
   314   3      3.9596199594808512      15.683473920596375      29.683703738109099
   315   3      4.4179619220153832      18.383992903402234      30.225038282225299
   316   3     0.19085735548774296      15.808066899073465      28.819148737849176
   317   3     0.08739472033194641      18.319493673985338      28.648235913949122
   318   3       8.635845053552643      15.044264329988604      28.791511819487511
   319   3      8.9219871270753153      18.091806628965323       32.26266271931916
   320   3      6.5366892660220977      18.936327990497983      31.798271438220048
   321   3      8.5668183564392528      19.716033245075643      30.185520787435614
   322   3      7.5094129807683707      17.282467111254711      29.986606985718108
   323   3      5.3405077330034159      19.328143057903958      27.434809335490669
   324   3       8.584643705441513      17.197658064651186       27.52348614587909
   325   3      6.1840032331109871      15.929808961443774      28.134646515013497
   326   3      3.6568757932128602      18.997275723930819      32.441661543301279
   327   3      5.1358026938019394      16.736990068043816      32.415490968129241
   328   3      3.6185550845459833      18.320343165338599      34.901589650176774
   329   3      4.0094900566852427      19.129517443503346      37.361897819531791
   330   3      1.4972354342588068      16.939625465158969      37.849316800600647
   331   3      4.7456815786425697      16.389890920976807      36.578799901828035
   332   3     0.58969993002300591      15.451938046355238      33.182569819234608
   333   3      1.6839727320851783      15.806982361791233      35.575429058536429
   334   3      1.4091924422426769      19.564410889298671      33.836018417445302
   335   3      3.3191378007499428      15.343399334335317      33.648265291086986
   336   3      7.9999024280905493      19.879280318591896      34.667535961877562
   337   3      8.1462568086239191      17.136162258032531      34.846243322597516
   338   3      8.7615455794657411      18.857560157409022      36.895722203978174
   339   3       6.181621163487212       18.36960336363742      35.999592774056509
   340   3      7.1337418192024158      15.873748625390586      37.095882393810541
   341   3      5.7763019844300967      15.150548273147265      34.561735521687098
   342   3      12.702422572508809      3.0750536198868894      28.031527294402142
   343   3      10.567736246710401       3.976693666408162        31.4715966536792
   344   3      10.532844624865206      4.4517055320468284      28.989593646742154
   345   3      19.708442477813257      3.4070407766906912      29.185038133321854
   346   3      19.636624545753783     0.40745491211146856      27.364939268635741
   347   3      15.304328348142874     0.64714963124130709      27.069620789082308
   348   3      17.957545629745731      2.2349498846161184      31.099931543743079
   349   3      17.320561037771562      4.0879887210955177      29.489980456772308
   350   3      18.875599763309882     0.15035296593862396      29.982248208492699
   351   3      18.718600832692246       4.933520725225355      31.470919471576405
   352   3      16.646946056864959    0.065567503573400465      31.649534043011069
   353   3      12.891059092019708      1.7940328278301509      38.474798423695205
   354   3      11.162817050927625      3.9244065930064931      35.119877673692983
   355   3      12.819819623558608      4.2928933754336649      37.211996921203266
   356   3      19.322756478558848     0.14287795245924287      35.396698891340158
   357   3      19.013429431106029     0.30508297214389973      32.702287774512506
   358   3      15.061169692933555      2.8559290826927279      37.684314079542176
   359   3       18.23533436943125      3.7130551782223531      33.577279586706993