ITEM: TIME
0
ITEM: TIMESTEP
0
ITEM: NUMBER OF ATOMS
4
ITEM: BOX BOUNDS xy xz yz pp pp ff
0.0000000000000000e+00 1.5000000000000000e+01 0.0000000000000000e+00
0.0000000000000000e+00 1.5000000000000000e+01 0.0000000000000000e+00
0.0000000000000000e+00 1.5000000000000000e+01 0.0000000000000000e+00
ITEM: ATOMS id element xu yu zu vx vy vz fx fy fz
1 C 7.500000000000000 7.500000000000000 7.500000000000000 0.000 0.000 0.000 0.793 0.613 0.163
2 H 7.500000000000000 7.500000000000000 8.592173562719999 0.000 0.000 0.000 -0.914 -0.588 -0.043
3 H 7.027885564112999 6.980651647312000 6.659913322762000 0.000 0.000 0.000 -0.191 -0.171 0.469
4 F 8.719419754145999 8.014758741125000 7.172279615037000 0.000 0.000 0.000 0.312 0.147 -0.589
ITEM: TIME
0.001
ITEM: TIMESTEP
1
ITEM: NUMBER OF ATOMS
4
ITEM: BOX BOUNDS xy xz yz pp pp ff
0.0000000000000000e+00 1.5000000000000000e+01 0.0000000000000000e+00
0.0000000000000000e+00 1.5000000000000000e+01 0.0000000000000000e+00
0.0000000000000000e+00 1.5000000000000000e+01 0.0000000000000000e+00
ITEM: ATOMS id element xu yu zu vx vy vz fx fy fz
1 C 7.546476207433945 7.535902883003645 7.509556263348659 0.000 0.000 0.000 -0.615 -0.462 -0.936
2 H 7.446472682803907 7.465543743420271 8.589673700278791 0.000 0.000 0.000 -0.316 -0.247 0.057
3 H 7.016673032070571 6.970608324364304 6.687357210845840 0.000 0.000 0.000 0.435 0.495 1.118
4 F 8.737683395950576 8.023355437648780 7.137779326045709 0.000 0.000 0.000 0.496 0.214 -0.239
ITEM: TIME
0.002
ITEM: TIMESTEP
2
ITEM: NUMBER OF ATOMS
4
ITEM: BOX BOUNDS xy xz yz pp pp ff
0.0000000000000000e+00 1.5000000000000000e+01 0.0000000000000000e+00
0.0000000000000000e+00 1.5000000000000000e+01 0.0000000000000000e+00
0.0000000000000000e+00 1.5000000000000000e+01 0.0000000000000000e+00
ITEM: ATOMS id element xu yu zu vx vy vz fx fy fz
1 C 7.552547588332771 7.540839589742712 7.495186597365315 0.000 0.000 0.000 -0.085 -0.035 0.364
2 H 7.419719950959320 7.447486066413823 8.589805597783618 0.000 0.000 0.000 -0.007 -0.041 -0.645
3 H 7.020737330255083 6.976274081694939 6.719525833624895 0.000 0.000 0.000 0.121 0.103 0.297
4 F 8.754300448711826 8.030810650585526 7.119848471745170 0.000 0.000 0.000 -0.029 -0.027 -0.016
ITEM: TIME
0.003
ITEM: TIMESTEP
3
ITEM: NUMBER OF ATOMS
4
ITEM: BOX BOUNDS xy xz yz pp pp ff
0.0000000000000000e+00 1.5000000000000000e+01 0.0000000000000000e+00
0.0000000000000000e+00 1.5000000000000000e+01 0.0000000000000000e+00
0.0000000000000000e+00 1.5000000000000000e+01 0.0000000000000000e+00
ITEM: ATOMS id element xu yu zu vx vy vz fx fy fz
1 C 7.551860272426580 7.540910760795540 7.499787015464583 0.000 0.000 0.000 0.156 0.125 -0.052
2 H 7.415775421690948 7.444159111851125 8.578054802278832 0.000 0.000 0.000 -0.018 -0.052 -0.147
3 H 7.023531528329335 6.978964169446247 6.729521813716363 0.000 0.000 0.000 0.011 -0.001 0.133
4 F 8.756138095812137 8.031376346344087 7.117002869059221 0.000 0.000 0.000 -0.149 -0.071 0.066
ITEM: TIME
0.004
ITEM: TIMESTEP
4
ITEM: NUMBER OF ATOMS
4
ITEM: BOX BOUNDS xy xz yz pp pp ff
0.0000000000000000e+00 1.5000000000000000e+01 0.0000000000000000e+00
0.0000000000000000e+00 1.5000000000000000e+01 0.0000000000000000e+00
0.0000000000000000e+00 1.5000000000000000e+01 0.0000000000000000e+00
ITEM: ATOMS id element xu yu zu vx vy vz fx fy fz
1 C 7.553437081814467 7.542178619124660 7.499297789272216 0.000 0.000 0.000 0.044 0.075 -0.038
2 H 7.415562565680593 7.443600461405535 8.576460986741621 0.000 0.000 0.000 -0.017 -0.049 -0.116
3 H 7.023667276628172 6.978971777475163 6.730956340804152 0.000 0.000 0.000 0.011 -0.001 0.123
4 F 8.754638394135769 8.030659530431640 7.117651383701011 0.000 0.000 0.000 -0.038 -0.025 0.030
ITEM: TIME
0.005
ITEM: TIMESTEP
5
ITEM: NUMBER OF ATOMS
4
ITEM: BOX BOUNDS xy xz yz pp pp ff
0.0000000000000000e+00 1.5000000000000000e+01 0.0000000000000000e+00
0.0000000000000000e+00 1.5000000000000000e+01 0.0000000000000000e+00
0.0000000000000000e+00 1.5000000000000000e+01 0.0000000000000000e+00
ITEM: ATOMS id element xu yu zu vx vy vz fx fy fz
1 C 7.555130880838402 7.545097054543231 7.497823604276141 0.000 0.000 0.000 -0.074 0.042 0.007
2 H 7.414896619614781 7.441682641796934 8.571963828586346 0.000 0.000 0.000 -0.017 -0.042 -0.026
3 H 7.024106213517539 6.978948981479976 6.735744184793265 0.000 0.000 0.000 -0.017 -0.033 0.041
4 F 8.753171604288276 8.029681710616856 7.118834882863246 0.000 0.000 0.000 0.107 0.033 -0.023
ITEM: TIME
0.006
ITEM: TIMESTEP
6
ITEM: NUMBER OF ATOMS
4
ITEM: BOX BOUNDS xy xz yz pp pp ff
0.0000000000000000e+00 1.5000000000000000e+01 0.0000000000000000e+00
0.0000000000000000e+00 1.5000000000000000e+01 0.0000000000000000e+00
0.0000000000000000e+00 1.5000000000000000e+01 0.0000000000000000e+00
ITEM: ATOMS id element xu yu zu vx vy vz fx fy fz
1 C 7.552963172449219 7.548426370431137 7.497323664868862 0.000 0.000 0.000 0.067 0.105 -0.056
2 H 7.413846086876682 7.438911469625054 8.568479640707414 0.000 0.000 0.000 -0.006 -0.029 0.064
3 H 7.023650363167936 6.977545221385088 6.740044319317656 0.000 0.000 0.000 -0.022 -0.047 -0.026
4 F 8.756845695765163 8.030527326995717 7.118518875625066 0.000 0.000 0.000 -0.040 -0.029 0.017
ITEM: TIME
0.007
ITEM: TIMESTEP
7
ITEM: NUMBER OF ATOMS
4
ITEM: BOX BOUNDS xy xz yz pp pp ff
0.0000000000000000e+00 1.5000000000000000e+01 0.0000000000000000e+00
0.0000000000000000e+00 1.5000000000000000e+01 0.0000000000000000e+00
0.0000000000000000e+00 1.5000000000000000e+01 0.0000000000000000e+00
ITEM: ATOMS id element xu yu zu vx vy vz fx fy fz
1 C 7.552892146524363 7.552235554669291 7.496040838335936 0.000 0.000 0.000 0.022 0.061 -0.019
2 H 7.413133946309753 7.436783937962577 8.567581426056920 0.000 0.000 0.000 0.015 -0.008 0.034
3 H 7.022999425735763 6.975889599035912 6.742100516842922 0.000 0.000 0.000 0.009 -0.020 -0.029
4 F 8.758279799689122 8.030501296769216 7.118643719283220 0.000 0.000 0.000 -0.045 -0.033 0.014
ITEM: TIME
0.008
ITEM: TIMESTEP
8
ITEM: NUMBER OF ATOMS
4
ITEM: BOX BOUNDS xy xz yz pp pp ff
0.0000000000000000e+00 1.5000000000000000e+01 0.0000000000000000e+00
0.0000000000000000e+00 1.5000000000000000e+01 0.0000000000000000e+00
0.0000000000000000e+00 1.5000000000000000e+01 0.0000000000000000e+00
ITEM: ATOMS id element xu yu zu vx vy vz fx fy fz
1 C 7.553249560346866 7.553245485330077 7.495724047486999 0.000 0.000 0.000 -0.045 0.019 0.007
2 H 7.413387210963766 7.436654766996245 8.568145703066994 0.000 0.000 0.000 0.018 -0.004 0.002
3 H 7.023141056538400 6.975559432073738 6.741624685586697 0.000 0.000 0.000 0.021 -0.004 -0.007
4 F 8.757527490409968 8.029950704036937 7.118872064378307 0.000 0.000 0.000 0.006 -0.012 -0.002
ITEM: TIME
0.009000000000000001
ITEM: TIMESTEP
9
ITEM: NUMBER OF ATOMS
4
ITEM: BOX BOUNDS xy xz yz pp pp ff
0.0000000000000000e+00 1.5000000000000000e+01 0.0000000000000000e+00
0.0000000000000000e+00 1.5000000000000000e+01 0.0000000000000000e+00
0.0000000000000000e+00 1.5000000000000000e+01 0.0000000000000000e+00
ITEM: ATOMS id element xu yu zu vx vy vz fx fy fz
1 C 7.549561632005549 7.556364761229046 7.495969273548049 0.000 0.000 0.000 0.004 0.022 -0.011
2 H 7.415382084979202 7.436116564172730 8.569060819312838 0.000 0.000 0.000 0.003 -0.009 -0.011
3 H 7.025264891177338 6.974770561534592 6.740341540689049 0.000 0.000 0.000 0.007 -0.002 0.014
4 F 8.757096710096912 8.028158501500629 7.118994866969063 0.000 0.000 0.000 -0.013 -0.011 0.007
ITEM: TIME
0.01
ITEM: TIMESTEP
10
ITEM: NUMBER OF ATOMS
4
ITEM: BOX BOUNDS xy xz yz pp pp ff
0.0000000000000000e+00 1.5000000000000000e+01 0.0000000000000000e+00
0.0000000000000000e+00 1.5000000000000000e+01 0.0000000000000000e+00
0.0000000000000000e+00 1.5000000000000000e+01 0.0000000000000000e+00
ITEM: ATOMS id element xu yu zu vx vy vz fx fy fz
1 C 7.549222237987411 7.557655570961641 7.495582330660404 0.000 0.000 0.000 -0.024 0.007 0.012
2 H 7.415759223092530 7.435698216931257 8.568753157457786 0.000 0.000 0.000 0.001 -0.007 -0.014
3 H 7.025822504964038 6.974570279861096 6.740729714384352 0.000 0.000 0.000 0.001 -0.005 0.007
4 F 8.756501352215020 8.027486320683003 7.119301298016459 0.000 0.000 0.000 0.023 0.005 -0.005
ITEM: TIME
0.011
ITEM: TIMESTEP
11
ITEM: NUMBER OF ATOMS
4
ITEM: BOX BOUNDS xy xz yz pp pp ff
0.0000000000000000e+00 1.5000000000000000e+01 0.0000000000000000e+00
0.0000000000000000e+00 1.5000000000000000e+01 0.0000000000000000e+00
0.0000000000000000e+00 1.5000000000000000e+01 0.0000000000000000e+00
ITEM: ATOMS id element xu yu zu vx vy vz fx fy fz
1 C 7.548122751031978 7.559186497809222 7.495570783148612 0.000 0.000 0.000 -0.006 0.009 -0.008
2 H 7.416160981838169 7.435060165547142 8.567993265186939 0.000 0.000 0.000 -0.004 -0.006 0.011
3 H 7.026413071101155 6.974194823829092 6.741358206687520 0.000 0.000 0.000 -0.006 -0.008 -0.000
4 F 8.756608514287699 8.026968901251543 7.119444245495931 0.000 0.000 0.000 0.016 0.005 -0.003
ITEM: TIME
0.012
ITEM: TIMESTEP
12
ITEM: NUMBER OF ATOMS
4
ITEM: BOX BOUNDS xy xz yz pp pp ff
0.0000000000000000e+00 1.5000000000000000e+01 0.0000000000000000e+00
0.0000000000000000e+00 1.5000000000000000e+01 0.0000000000000000e+00
0.0000000000000000e+00 1.5000000000000000e+01 0.0000000000000000e+00
ITEM: ATOMS id element xu yu zu vx vy vz fx fy fz
1 C 7.547960022465582 7.559427585647178 7.495365563403374 0.000 0.000 0.000 0.003 0.009 0.007
2 H 7.416064505361415 7.434891755001309 8.568294364969187 0.000 0.000 0.000 -0.000 -0.003 -0.008
3 H 7.026257871403413 6.973985470158341 6.741350505406953 0.000 0.000 0.000 -0.002 -0.005 0.000
4 F 8.757022919028591 8.027105577630172 7.119356066739485 0.000 0.000 0.000 -0.001 -0.002 0.001
ITEM: TIME
0.013
ITEM: TIMESTEP
13
ITEM: NUMBER OF ATOMS
4
ITEM: BOX BOUNDS xy xz yz pp pp ff
0.0000000000000000e+00 1.5000000000000000e+01 0.0000000000000000e+00
0.0000000000000000e+00 1.5000000000000000e+01 0.0000000000000000e+00
0.0000000000000000e+00 1.5000000000000000e+01 0.0000000000000000e+00
ITEM: ATOMS id element xu yu zu vx vy vz fx fy fz
1 C 7.547967156125415 7.559673859338463 7.495446735840510 0.000 0.000 0.000 -0.002 0.003 -0.005
2 H 7.416038031637822 7.434790571262962 8.568223024897339 0.000 0.000 0.000 0.001 -0.002 -0.003
3 H 7.026182662307523 6.973838931921908 6.741353260546525 0.000 0.000 0.000 0.004 0.002 0.007
4 F 8.757117468188241 8.027107025913667 7.119343479234627 0.000 0.000 0.000 -0.002 -0.002 0.002
ITEM: TIME
0.014
ITEM: TIMESTEP
14
ITEM: NUMBER OF ATOMS
4
ITEM: BOX BOUNDS xy xz yz pp pp ff
0.0000000000000000e+00 1.5000000000000000e+01 0.0000000000000000e+00
0.0000000000000000e+00 1.5000000000000000e+01 0.0000000000000000e+00
0.0000000000000000e+00 1.5000000000000000e+01 0.0000000000000000e+00
ITEM: ATOMS id element xu yu zu vx vy vz fx fy fz
1 C 7.547816900033027 7.560313624195873 7.495241144155905 0.000 0.000 0.000 -0.006 -0.000 0.001
2 H 7.416045232645645 7.434451859118149 8.567852970737762 0.000 0.000 0.000 0.001 -0.000 0.000
3 H 7.026294194803816 6.973684201790186 6.741834561099254 0.000 0.000 0.000 0.002 0.000 -0.001
4 F 8.757148990776512 8.026960703332790 7.119437824526079 0.000 0.000 0.000 0.003 0.000 -0.001
ITEM: TIME
0.015
ITEM: TIMESTEP
15
ITEM: NUMBER OF ATOMS
4
ITEM: BOX BOUNDS xy xz yz pp pp ff
0.0000000000000000e+00 1.5000000000000000e+01 0.0000000000000000e+00
0.0000000000000000e+00 1.5000000000000000e+01 0.0000000000000000e+00
0.0000000000000000e+00 1.5000000000000000e+01 0.0000000000000000e+00
ITEM: ATOMS id element xu yu zu vx vy vz fx fy fz
1 C 7.547679512034540 7.560378993432801 7.495241714062286 0.000 0.000 0.000 0.000 0.003 0.000
2 H 7.416074122901987 7.434414499757398 8.567820874877629 0.000 0.000 0.000 0.001 -0.000 0.002
3 H 7.026341706151894 6.973669237088212 6.741875050280590 0.000 0.000 0.000 0.000 -0.001 -0.002
4 F 8.757209977170580 8.026947658158587 7.119428861298496 0.000 0.000 0.000 -0.002 -0.001 0.000
ITEM: TIME
0.016
ITEM: TIMESTEP
16
ITEM: NUMBER OF ATOMS
4
ITEM: BOX BOUNDS xy xz yz pp pp ff
0.0000000000000000e+00 1.5000000000000000e+01 0.0000000000000000e+00
0.0000000000000000e+00 1.5000000000000000e+01 0.0000000000000000e+00
0.0000000000000000e+00 1.5000000000000000e+01 0.0000000000000000e+00
ITEM: ATOMS id element xu yu zu vx vy vz fx fy fz
1 C 7.547495395469629 7.560628302675022 7.495261527386826 0.000 0.000 0.000 0.000 -0.000 -0.002
2 H 7.416175545215369 7.434357532592050 8.567880352635758 0.000 0.000 0.000 0.001 0.000 0.000
3 H 7.026433680607686 6.973580218966550 6.741790287524832 0.000 0.000 0.000 0.001 0.001 0.001
4 F 8.757200696966317 8.026844334203375 7.119434332971585 0.000 0.000 0.000 -0.002 -0.001 0.001
ITEM: TIME
0.017
ITEM: TIMESTEP
17
ITEM: NUMBER OF ATOMS
4
ITEM: BOX BOUNDS xy xz yz pp pp ff
0.0000000000000000e+00 1.5000000000000000e+01 0.0000000000000000e+00
0.0000000000000000e+00 1.5000000000000000e+01 0.0000000000000000e+00
0.0000000000000000e+00 1.5000000000000000e+01 0.0000000000000000e+00
ITEM: ATOMS id element xu yu zu vx vy vz fx fy fz
1 C 7.547462890473130 7.560671151107071 7.495225187200239 0.000 0.000 0.000 -0.000 -0.000 0.001
2 H 7.416203881253701 7.434348928591319 8.567899781786890 0.000 0.000 0.000 0.000 0.000 -0.001
3 H 7.026474842914739 6.973582930692103 6.741792958985427 0.000 0.000 0.000 0.000 0.000 0.000
4 F 8.757163703617429 8.026807378046504 7.119448572546443 0.000 0.000 0.000 -0.000 -0.000 0.000
ITEM: TIME
0.018
ITEM: TIMESTEP
18
ITEM: NUMBER OF ATOMS
4
ITEM: BOX BOUNDS xy xz yz pp pp ff
0.0000000000000000e+00 1.5000000000000000e+01 0.0000000000000000e+00
0.0000000000000000e+00 1.5000000000000000e+01 0.0000000000000000e+00
0.0000000000000000e+00 1.5000000000000000e+01 0.0000000000000000e+00
ITEM: ATOMS id element xu yu zu vx vy vz fx fy fz
1 C 7.547441165466363 7.560682711727876 7.495237304155699 0.000 0.000 0.000 -0.000 0.000 0.000
2 H 7.416223298613671 7.434350829183574 8.567877351543803 0.000 0.000 0.000 0.000 -0.000 0.000
3 H 7.026501326422395 6.973590290035577 6.741796114064504 0.000 0.000 0.000 -0.000 -0.000 -0.000
4 F 8.757139527756570 8.026786557489972 7.119455730754994 0.000 0.000 0.000 0.000 0.000 -0.000
ITEM: TIME
0.019
ITEM: TIMESTEP
19
ITEM: NUMBER OF ATOMS
4
ITEM: BOX BOUNDS xy xz yz pp pp ff
0.0000000000000000e+00 1.5000000000000000e+01 0.0000000000000000e+00
0.0000000000000000e+00 1.5000000000000000e+01 0.0000000000000000e+00
0.0000000000000000e+00 1.5000000000000000e+01 0.0000000000000000e+00
ITEM: ATOMS id element xu yu zu vx vy vz fx fy fz
1 C 7.547436718038735 7.560683904732949 7.495239677935406 0.000 0.000 0.000 -0.000 0.000 -0.000
2 H 7.416224406647311 7.434350597988937 8.567877660740894 0.000 0.000 0.000 0.000 -0.000 0.000
3 H 7.026501571201210 6.973588965733414 6.741794307008427 0.000 0.000 0.000 0.000 -0.000 -0.000
4 F 8.757142622371743 8.026786919981699 7.119454854834272 0.000 0.000 0.000 -0.000 -0.000 0.000
ITEM: TIME
0.02
ITEM: TIMESTEP
20
ITEM: NUMBER OF ATOMS
4
ITEM: BOX BOUNDS xy xz yz pp pp ff
0.0000000000000000e+00 1.5000000000000000e+01 0.0000000000000000e+00
0.0000000000000000e+00 1.5000000000000000e+01 0.0000000000000000e+00
0.0000000000000000e+00 1.5000000000000000e+01 0.0000000000000000e+00
ITEM: ATOMS id element xu yu zu vx vy vz fx fy fz
1 C 7.547433603333313 7.560687827262978 7.495237792528841 0.000 0.000 0.000 -0.000 0.000 0.000
2 H 7.416225997584871 7.434349672489740 8.567881365986423 0.000 0.000 0.000 0.000 -0.000 -0.000
3 H 7.026502236262314 6.973587051476036 6.741792243976555 0.000 0.000 0.000 0.000 -0.000 0.000
4 F 8.757143481078501 8.026785837208246 7.119455098027180 0.000 0.000 0.000 -0.000 -0.000 0.000
ITEM: TIME
0.021
ITEM: TIMESTEP
21
ITEM: NUMBER OF ATOMS
4
ITEM: BOX BOUNDS xy xz yz pp pp ff
0.0000000000000000e+00 1.5000000000000000e+01 0.0000000000000000e+00
0.0000000000000000e+00 1.5000000000000000e+01 0.0000000000000000e+00
0.0000000000000000e+00 1.5000000000000000e+01 0.0000000000000000e+00
ITEM: ATOMS id element xu yu zu vx vy vz fx fy fz
1 C 7.547431319155997 7.560692952486141 7.495238403409691 0.000 0.000 0.000 -0.000 -0.000 -0.000
2 H 7.416228512245137 7.434348861409644 8.567880985235121 0.000 0.000 0.000 0.000 -0.000 -0.000
3 H 7.026504072112592 6.973585460273267 6.741790903984371 0.000 0.000 0.000 0.000 0.000 0.000
4 F 8.757141414745274 8.026783114267948 7.119456207889817 0.000 0.000 0.000 0.000 -0.000 -0.000
ITEM: TIME
0.022
ITEM: TIMESTEP
22
ITEM: NUMBER OF ATOMS
4
ITEM: BOX BOUNDS xy xz yz pp pp ff
0.0000000000000000e+00 1.5000000000000000e+01 0.0000000000000000e+00
0.0000000000000000e+00 1.5000000000000000e+01 0.0000000000000000e+00
0.0000000000000000e+00 1.5000000000000000e+01 0.0000000000000000e+00
ITEM: ATOMS id element xu yu zu vx vy vz fx fy fz
1 C 7.547426261689069 7.560696704562731 7.495237764964364 0.000 0.000 0.000 -0.000 0.000 -0.000
2 H 7.416231303416996 7.434347865927804 8.567879596816535 0.000 0.000 0.000 -0.000 -0.000 0.000
3 H 7.026507442112874 6.973585253156587 6.741791923561284 0.000 0.000 0.000 -0.000 -0.000 0.000
4 F 8.757140311040061 8.026780564789878 7.119457215176816 0.000 0.000 0.000 0.000 0.000 -0.000
