LAMMPS data file via write_data, version 2 Aug 2023, timestep = 2165, units = metal

5162 atoms
5 atom types

0 30 xlo xhi
0 30 ylo yhi
0 200 zlo zhi

Masses

1 28.0855
2 14.0067
3 12.011
4 1.00784
5 18.998

Atoms # atomic

1 1 0.35263945434591315 1.2037543297503885 3.1798265798156184 0 0 0
643 2 1.9905593558441812 1.6988918795492258 3.460687347932915 0 1 0
858 2 3.7234755232777785 3.1551497597717426 2.340082979452688 0 0 0
4769 1 2.6733494429439237 1.8651037648696376 1.792074937253931 0 0 0
4074 2 3.214511663539212 0.27732901654782294 1.5182560096697508 1 0 0
1209 2 2.580198339796939 4.646869345248682 4.004692599898389 0 0 0
868 2 2.074884801481363 2.4412974109502277 0.27219799230163694 0 0 0
663 1 3.2343105102259977 4.897112635917325 2.258744621645582 0 0 0
173 2 2.8528946889436995 4.988251544794593 0.5498145468986663 1 0 0
599 1 5.253034847642275 2.7141417751843293 2.9823982240662983 0 0 0
565 2 6.112437152207926 4.12916935444197 2.58325174102123 0 0 0
495 2 5.93446361136766 1.1931470878754573 1.9053921567990733 0 0 0
787 1 9.017161456281457 2.3362661926398074 3.7797705734365743 0 1 0
532 2 8.950210007955317 2.6846036610275266 2.1571643263467695 0 0 0
4890 1 9.063708950771282 4.412646841613442 1.8837550001341965 0 0 0
3600 1 9.196664999127591 1.8828762208326726 0.6168258918542927 0 0 0
967 1 6.2667389655933095 4.324681094512132 0.8138122146067972 1 0 0
4469 1 6.8323140595043625 0.28576801938213336 3.1829564789086655 0 0 0
534 1 6.14145934726294 1.4483090617717234 0.1418329193385584 0 0 0
4733 2 7.992648285745599 4.606835102641232 0.6312997999473742 0 1 0
343 2 9.968600713118692 0.37862567867785274 1.0891311112600133 1 1 0
4446 2 5.29877164611368 3.007977347400032 0.0021808350256193876 0 0 0
135 2 10.25720176273994 1.1479703905945757 3.948875448582865 0 0 0
4445 1 13.229693346844531 0.2441451907472098 1.680849804501077 0 0 0
4724 1 11.922547690948127 1.5311960339356114 3.8779866983567994 0 1 0
354 2 12.35256819818464 1.6954571534781049 2.1866930710562564 0 1 0
38 1 12.245570688621836 3.3555937442325785 1.335013209266237 0 0 0
453 1 13.796023070357728 3.894432581871184 3.8996998739475655 0 0 0
4891 2 10.769883895107327 4.383273000174022 1.5225695768002947 0 0 0
151 2 13.094690859595481 4.787945722279757 2.600356832712687 0 0 0
269 1 14.732429049495394 0.8790033622919013 4.116011496566786 0 1 0
598 2 14.812129184608962 2.5426655675858325 3.603084920887759 0 0 0
4867 1 0.23304001346555617 8.26724297411945 1.6126313102759045 1 0 0
583 2 3.9789613158495443 6.523938995468849 2.5249832214355177 1 0 0
1008 1 2.863707221530812 7.817741881393601 2.890105682459979 1 0 0
832 2 1.6818452514472566 7.410364070983271 1.6396749442413265 1 0 0
13 2 3.4547386576931327 9.547307335010043 2.856892762768954 0 0 0
124 2 0.17931333003963443 9.339622272067672 3.0434381679891493 0 0 0
4064 1 2.024967754310076 6.447277275420308 0.20375718643644186 1 0 0
5081 2 5.216878260808013 8.579306722838096 0.7210465259487037 0 0 0
4910 1 5.313731555765716 7.074091682329717 1.4930827993423161 0 0 0
774 1 6.601183124976776 5.4945471994573385 3.434680446242333 0 1 0
4899 2 8.762783822624122 7.749050010313969 1.2424599397626448 0 0 0
489 2 6.460265900719241 7.086860440911915 2.838395704741714 0 0 0
120 2 8.47466358159838 5.666925646939609 3.24658497533052 0 0 0
4573 1 8.163364884958519 7.448653252011146 2.743926369440556 0 0 0
3976 2 8.508075655731076 8.708791524051655 4.0019507794422795 0 -1 0
4895 2 5.746555791842867 5.862738060627878 0.24146893347091883 0 0 0
4962 1 7.133040922099353 9.831246713497618 3.991226376656892 0 0 0
552 1 6.325873689194055 9.884729158118526 0.9306391329884095 0 0 0
4468 1 14.864436557252406 8.509422717022378 1.1222653655664598 0 0 0
4039 1 10.414604719593891 8.622447663507812 1.2231898512892387 0 0 0
82 1 12.908385254081198 9.243825195712986 3.1208725475798835 0 0 0
936 1 12.348413181721835 6.3725346465133965 3.0420064349182754 0 0 0
148 2 13.601904661748465 9.594363887028194 1.5163337364041805 0 0 0
609 2 11.346729459654172 7.028078341723592 1.6417693326340947 0 0 0
563 2 13.446525294805205 7.658625122629351 3.6454827415556226 0 0 0
322 2 11.204282851705349 9.16516016204567 2.897672328741338 0 0 0
76 1 11.08789809309457 5.737956546548688 0.5718141865756602 0 0 0
4941 2 14.544462576563497 6.766185730965279 0.8153267114613447 1 0 0
5032 2 0.7119138241981499 13.798885189834824 0.22039135430825585 1 0 0
719 2 4.4787648939206095 14.705100796181467 3.4823275550825983 0 0 0
226 2 3.256341643483991 12.412852145569104 0.9226232269963559 1 0 0
373 1 0.6353604724731172 13.418647492846915 3.9676165100432534 0 0 0
888 1 3.6850720126896674 13.284829296106626 4.0542550134687785 1 0 0
175 1 1.7472897051984289 12.968733729971605 1.4099424361124122 0 0 0
1019 2 1.1095870344256666 11.386204170731295 1.3094411376868627 1 0 0
856 2 2.154471967070648 13.22628328069273 3.2070612627597734 1 0 0
972 1 3.5873164006056606 10.648420214507373 1.3798729134117707 0 0 0
1377 2 4.761977689409975 11.882968145104975 4.041554724628124 0 0 0
4896 1 6.033249501641403 14.727945088531811 2.736454835996891 0 0 0
5065 2 8.012593483982599 12.437332144896512 0.5813352125890572 1 0 0
4777 2 5.283128765494663 11.296129536653837 0.7294190132228517 0 0 0
978 2 5.7081020236328195 13.998544545480572 1.1763719764853804 0 0 0
4591 2 6.934264837783769 10.534759396223405 2.446092272996284 1 0 0
5023 1 8.807039003942918 13.775901373741418 3.697261829770748 0 0 0
615 1 6.534449497367426 12.42719800866257 1.4856090865407643 0 0 0
278 2 7.08269399224521 13.365955972556515 3.2647703730771807 1 0 0
89 1 8.920964622079376 13.912819500799163 0.771735672724007 1 0 0
4983 2 9.892757499499272 13.126035919955742 2.39609510577897 0 0 0
1095 2 9.870150736079925 10.418176778286956 1.1738839222076307 0 0 0
590 1 13.43324704492033 12.149038443864681 3.184298940466173 0 0 0
5116 1 10.502415299307724 11.318254694913595 2.4291901971259837 0 1 0
4338 2 12.43132228700186 13.494326975542121 3.8199510408972337 0 0 0
4492 1 13.030831520250814 10.928255300466413 0.6351893871025713 0 0 0
19 2 12.202312239811649 11.969031940710744 1.8542850209061228 0 0 0
264 1 11.571575056232273 13.667029277274693 2.2704628729577676 0 0 0
546 2 13.342335242273593 10.662605522181291 4.121941367819729 0 0 0
548 2 10.257081553594892 11.143667879818612 4.1468566419677275 0 0 0
473 1 2.5635849585415706 1.0042925061479129 6.589268913852099 0 0 0
520 2 2.3384267703869077 2.6325782695558977 6.093502222842972 1 0 0
230 1 2.8793401953149895 2.9351374836009305 4.396215285078761 1 0 0
361 2 4.103632140959424 0.48341977625096433 6.12713826087768 0 1 0
3911 2 4.729613344230005 2.6075524863567594 4.641758499910451 0 1 0
686 1 2.0568318235101826 3.0223295292326635 7.790844493365037 1 0 0
118 2 0.31328686029512354 3.4069192793626075 7.9346524791437245 0 0 0
2234 2 10.739123059797977 10.04382190695489 23.080949022550612 0 0 0
470 2 7.651353916765747 1.4211414219721976 4.20109934195421 0 0 0
882 1 5.208706892171113 1.8272433209746282 6.1252264982729905 0 0 0
77 2 6.7543962653690715 1.1560672924880473 6.481156675086539 0 0 0
770 2 9.330531707366033 3.7661614303631055 4.666331222555467 0 1 0
2333 1 8.201046098007298 0.6360207808778581 5.693180501320997 1 1 0
1575 2 9.252705330181165 1.4876012848144327 6.843252242242105 0 1 0
316 1 7.731896707413435 2.012878433594464 7.610997725535117 0 1 0
1234 2 8.345561009672217 3.638974899161023 7.72766720591935 0 0 0
1159 2 5.098300380874446 2.496238986322614 7.7366074009009775 0 1 0
4077 1 9.974282341778316 2.9545623940187276 7.55973498886761 1 0 0
409 2 11.087190343531901 3.952312888818689 6.6394303335903935 1 1 0
717 1 12.666857714989222 3.368898916305139 6.199760278808475 0 1 0
147 2 13.860912906288581 4.438020208285502 5.569781954821146 0 0 0
823 2 12.141689447352084 3.1481156486130737 4.470971647656134 0 0 0
387 1 10.915149584334465 4.323348388213799 4.933154767752478 0 1 0
778 2 13.096886746710673 0.7627537996723103 4.919150924756727 0 1 0
382 2 12.998478453829936 2.5387029420934 7.582596905401113 0 1 0
5138 1 14.577551795255996 2.677841359728693 8.178121956959043 0 1 0
1372 2 0.535147442590833 8.945802398092955 6.6156642646320485 0 0 0
876 2 1.6348974336902116 5.537978104444762 6.788473566675316 0 0 0
2 1 2.591980718091796 5.836412856236819 5.25379596110529 0 0 0
188 2 2.162143616632036 7.422333695905401 4.471061545165631 0 0 0
909 2 4.170035649730136 6.167220078882642 6.084294892358844 1 0 0
427 1 3.516137619800352 7.529658816235174 6.992386556377176 0 0 0
4785 1 2.045213638076638 8.655338965947696 5.741217840840273 0 0 0
420 2 4.695770027688231 8.657825800696395 7.548246879710025 0 0 0
977 1 0.6884099613695227 9.700164171698605 8.188176829558262 0 0 0
3 2 6.7360724091471385 5.138768093626351 5.14705484319489 0 0 0
133 1 8.458012941208274 5.2153225044710725 4.966569737005185 0 0 0
4831 2 5.628008378660874 9.291691720998527 4.883620349915421 0 0 0
479 1 5.818235744372469 5.8259333649816964 6.461903263487771 0 0 0
4984 1 8.31618779016725 7.099431703240278 7.213771858736271 0 0 0
78 1 6.014113586973671 8.85321307985551 6.531064326131651 0 0 0
754 2 6.748283497655885 7.315153457154222 6.677023286552783 1 1 0
1283 2 9.249526984571204 6.266823744617494 6.05626206724788 0 0 0
1657 2 9.229703404696798 8.445404953941589 7.824851311350258 0 0 0
109 2 5.932600803392901 5.056899566946267 8.088050298097574 0 0 0
984 2 7.004853368931675 9.94906474704684 7.7273308257207844 0 0 0
976 1 14.920666321341054 5.275634354530725 6.60987290484909 0 0 0
610 1 14.876217341401418 8.34353763926483 6.850453502113767 0 0 0
4937 1 10.132601499925572 9.377343922609287 4.257695064465456 1 0 0
4521 1 10.563609597904055 9.516662479819669 7.13548143871245 0 0 0
4372 2 11.402310526304289 5.95636922115363 4.564723037514607 0 0 0
4851 1 10.886923595945667 6.9389790063738905 5.9304725285927935 0 0 0
194 2 10.930309537470478 8.65642680212649 5.658548189093883 0 0 0
962 2 14.118190901607228 6.768876041495324 7.046354558877892 0 0 0
835 2 14.038609799952363 9.924507385315952 6.872379655709989 0 0 0
4643 2 11.403658138793856 6.836708555364458 7.656174055904779 1 0 0
921 2 4.708774856098943 11.615602359563225 7.428562730595254 0 0 0
1779 2 1.829652782890202 12.337633130364113 7.306770987493427 0 0 0
121 2 0.9229865307613443 14.361022125123695 5.457920362807362 0 0 0
1026 2 2.902276809766135 10.214250315174043 5.5428128177196525 1 0 0
595 1 4.2026898415047365 10.218733545062923 4.340265397359179 0 0 0
1381 1 3.0171415179641383 11.080851259410627 7.061806501745211 0 0 0
525 2 3.6560851641591645 13.621026472735084 5.787984926027807 0 0 0
1423 1 2.124035940100481 13.785042896005521 6.493150584271907 0 0 0
242 1 4.91665028349872 13.304372333239234 6.9972564942888225 0 0 0
5070 2 2.3812382807981702 14.685939750089723 7.945907909217614 0 0 0
992 1 7.787978881447816 13.886110297837943 6.64413006940335 0 0 0
408 2 8.905750161797364 13.31564946975006 5.3441699508735665 1 0 0
1189 1 6.349461913427526 12.415984771059255 4.608214403543418 1 0 0
1485 2 6.261661803153472 13.522472542004012 5.938688249986282 0 0 0
295 2 7.357313191892465 11.13009884147479 5.145953931115233 0 0 0
4964 1 8.010573220375147 11.141302688751361 6.73495649090419 0 0 0
602 2 9.703752928152138 10.894154380247581 6.639294952722191 0 0 0
587 2 8.037209915494078 12.573365838454055 7.7553802107172585 0 0 0
4694 1 11.254017851793654 14.090342291288575 6.913525921077028 0 0 0
1129 1 14.274674890993218 13.474757250828832 7.068165206567862 0 0 0
4505 1 10.270063390993245 12.194159848100945 5.583013161927596 0 0 0
941 2 14.839644684536493 12.500268694575738 5.8195685467571945 0 0 0
928 2 13.052837094678331 14.644881782449609 6.349973523490318 0 0 0
4854 1 14.419119492633072 10.846186884465931 5.45952244072442 0 0 0
4913 2 13.518498384335219 12.47865421292261 8.25601731087597 0 0 0
1201 2 2.4747225173884675 1.3512654237540287 8.337828579492186 1 1 0
1986 1 4.91445412367625 3.5588874467215117 11.800392084429573 1 1 0
1386 1 0.2083137701757661 4.143299981223506 10.665854995622674 0 0 0
127 1 4.7238616737258425 3.903922734136507 8.664781835536136 0 0 0
688 2 1.2038317517008381 1.092511137834537 12.434612530432975 1 0 0
437 2 3.0375700790306315 4.208592785736959 8.627127177362308 0 0 0
1082 2 1.4496213900999104 4.014414130180437 11.875872546677419 1 0 0
919 1 7.5309456031309825 4.731927594578852 8.752818282312527 0 0 0
5124 2 9.844629758251779 0.14199338632881156 9.46607963124224 0 1 0
430 2 7.825114354929791 4.380648645626935 10.450109505453787 0 0 0
748 1 7.474852132877342 0.7705120104326622 12.27132997378218 1 1 0
421 1 8.062700579977164 3.4169881840315495 11.882348951588998 0 0 0
303 2 7.331241151840207 1.407956336768999 9.17506988929469 0 1 0
355 2 8.755176923695883 1.8675389047620978 11.545122809963775 0 1 0
365 1 5.633666730943788 1.6470523661935228 9.196397132226963 0 1 0
1592 2 5.681658298458445 0.7699672358267426 12.208860389928066 1 1 0
1158 2 5.151546943684687 3.026022721538939 10.15831054835447 0 1 0
4747 2 14.135350445125606 0.07231136106685991 10.125212822312365 0 1 0
247 2 14.590317227539956 4.833210540927133 11.790160048479478 0 0 0
762 2 14.739970758847928 1.384833942800504 12.174111462749268 0 1 0
2486 2 12.033297199326237 4.1915693158890965 12.206429768905467 0 0 0
1282 1 12.361682354194286 3.380401673154789 9.02669103578815 0 0 0
1128 2 10.750305727413537 2.7612215388074377 9.214680572238526 0 1 0
656 1 13.50058697463587 1.470626395689546 10.944612030388447 0 1 0
5086 2 13.812998466687999 2.77237416897388 9.853230098991093 0 1 0
34 2 11.79652412706291 1.17740593808226 11.38140291943268 0 0 0
1000 1 10.274848061835792 1.5346745827222181 10.435575139046112 0 1 0
367 1 14.937768538809543 4.65743916636795 9.991507560099041 0 1 0
1604 2 3.1082381508910686 7.134612327023895 8.654329818927911 0 0 0
524 1 2.174303698463736 5.705069923480841 8.5449016838913 0 0 0
1422 2 0.4610809215864215 8.602314690392122 9.511481973559572 1 0 0
927 2 0.8087864524775689 5.602291289878136 9.722570867079726 0 0 0
1220 1 4.395045239159789 6.817722349590547 11.808562583418407 0 0 0
141 2 2.657457145218642 7.079463594844128 12.094312819138178 0 0 0
363 1 4.263829056835247 8.364774812856032 9.206207985794054 0 1 0
1873 2 0.34416891522583765 8.55835569425719 12.349589592663158 0 0 0
1726 1 0.6647913158173364 9.553067695986103 10.976954415257156 0 0 0
966 1 2.5249087333066105 5.317806765017529 12.25998079939877 1 0 0
531 2 4.160782433913353 5.113534252881571 11.709331453233524 0 0 0
1264 1 8.213895908185853 9.309995313133644 9.065545990846061 0 0 0
968 1 9.061365973573329 8.164581447070175 11.432323576044299 1 0 0
1261 1 6.1114383017633065 8.643784619854276 11.546413512446813 0 0 0
1223 2 8.792131468779559 6.576654909456494 12.044395000398966 0 0 0
739 2 7.591824590851744 8.655539476707048 10.587555573360435 0 0 0
1942 2 8.454039060897115 6.2642487913362634 8.807727198822246 0 1 0
1268 1 8.916471169985517 5.648209023510851 10.594874278268872 0 0 0
867 2 5.064909792959344 7.675506324910142 10.509695113333045 0 0 0
487 1 12.965372447945256 6.571478423914625 8.350016612522099 0 0 0
1588 1 10.791701710154982 9.865572130355181 9.86531809230139 1 1 0
833 2 11.875221173569782 9.800791109478338 11.350946216879692 0 0 0
449 2 13.5255842597997 7.789065733220915 9.472457168796979 0 0 0
85 1 12.909231822593256 8.229421798281216 11.00828523265993 0 0 0
2058 2 12.021517241579392 6.955120458839656 11.840025592455689 0 0 0
1653 1 11.889429220342437 5.453315501066193 11.000012209403469 0 0 0
1226 2 14.160882667830709 8.029717088182265 12.179212872097224 0 0 0
372 2 10.494730595886548 5.611796625187654 10.051334899668463 0 1 0
380 2 12.904822812431625 5.107998008748481 9.46393054198042 0 1 0
4844 1 10.198170398102695 6.978480814598297 8.917737067595422 0 0 0
551 2 10.225126492223868 8.231772913252772 10.137893355041168 0 0 0
917 2 2.3416968621537695 10.174480339562479 8.419140655802968 0 0 0
1154 1 2.9240293351671243 14.910542508017746 12.286191118631038 0 0 0
1502 1 4.585667819907847 13.631557780596275 10.207955049479665 0 0 0
920 2 0.5259788637927125 13.245597825905305 9.704928213452662 0 0 0
422 1 2.143246264292868 11.80293071617362 12.382105966158342 0 0 0
1610 1 3.119584119304681 10.830605525984776 9.851537561550003 0 0 0
1266 2 3.3045333777229455 12.558675578612965 9.721622349903505 0 0 0
1083 1 1.9896029113220788 13.251117556622907 8.812796231472682 1 0 0
1421 2 1.9786960860935046 13.521702087094422 11.98181786235476 1 0 0
521 2 2.1866353493834403 10.45517714466262 11.231785742095866 0 0 0
1361 1 0.5089876099496421 13.927009017150082 11.278671567794548 1 0 0
987 2 4.62447321307355 10.035014743533372 9.720498942579939 0 0 0
1836 2 6.811285998594175 11.592893692944614 9.85030502800946 0 0 0
1211 2 8.071815268762942 11.764366482539302 12.475635749524484 0 0 0
1045 1 6.538215545656049 11.613743275997013 11.565050186305943 0 0 0
474 2 9.27620450489281 13.088017169081978 10.447430797935153 0 -1 0
940 1 8.425749698228493 12.09654922904073 9.381347873958257 0 0 0
4782 2 9.276474003078794 10.603718296584388 9.493259333960479 0 0 0
1162 1 8.96784106541244 13.2320623337263 12.136764704439901 0 1 0
1770 1 5.706066993190183 10.8904400332448 8.682199872870312 0 0 0
1380 2 5.3354729099135625 12.887770260397252 11.65096642582096 0 0 0
1371 2 5.317312820786345 14.125585975125464 8.610091964501834 0 0 0
931 2 5.901359279855194 10.182467245174122 12.345789300128576 0 0 0
424 2 8.000148269617338 14.796480669757972 12.015567056212598 0 0 0
1061 1 13.383760373087297 10.69794035612126 8.355287036911339 0 0 0
1218 2 11.734906298015717 10.011249313144772 8.403266328527396 0 0 0
837 2 14.107929655747732 10.460929083412974 10.008923708240557 0 0 0
136 2 11.116437600558882 14.84660952949669 11.372530790216647 0 0 0
1733 1 13.172063071864079 11.123278389091055 11.399702393259942 0 0 0
932 1 10.246676042197286 14.392741758519797 9.939718294929156 0 0 0
990 1 11.889621534283252 13.624296633268637 12.363434130836998 0 0 0
603 1 12.732871954487322 13.533590153128367 9.449527661683414 0 0 0
132 2 11.217409720000955 13.866337252892944 8.635343735163069 0 0 0
1041 2 12.450117133307456 12.627589115444577 10.947209204487333 0 0 0
1247 2 3.6817518057323024 2.628167664323474 12.699694479787658 1 0 0
1879 1 4.485696659199195 1.2715089942748847 13.41405501469252 0 1 0
842 1 0.29268530280477895 1.112389189612275 14.819839201672487 1 0 0
1256 2 1.1705427681465437 2.5395450357959324 14.488845481186093 0 0 0
922 1 1.9296703715021366 2.6437468849213412 12.872562044389053 0 0 0
2381 2 0.4465980397480759 4.80227544408987 15.857333645031332 1 1 0
2222 2 3.211661959621142 3.8037583694389987 15.785699723456117 0 0 0
807 1 1.5509895595327443 3.422488674810803 15.91523755036345 0 0 0
703 2 2.8338817482062235 1.2195404283587115 16.338276195104864 0 1 0
1302 1 4.090917745820874 2.398540569045453 16.174104876310945 1 0 0
1589 2 3.3295704047605477 0.05544245046318282 13.778615201016809 1 1 0
1647 2 5.158346718883923 1.8031999936837015 14.908147778615959 1 0 0
1186 2 9.298203243220003 4.115638918840915 12.969991432633702 0 1 0
2041 1 9.509349231472195 0.5039572391837839 14.253948127024561 1 0 0
2001 2 7.83959849281787 0.8805017906468898 14.03502460404172 0 0 0
975 1 6.46122319369467 4.232650857305747 14.396892446596755 0 0 0
1108 2 6.50033302015122 3.571900807698071 12.752807759237653 0 1 0
800 1 6.79419674526207 1.5048345730709283 15.325540985756726 1 1 0
1155 2 9.69057859821062 3.3044027511919465 16.286933273710105 0 1 0
1349 2 7.077956939222442 3.2139867613911752 15.690224218651808 0 0 0
4806 1 11.611746996582491 0.2747418048780908 12.873350778124857 0 0 0
1508 1 13.536475888372124 4.590155030356671 13.10140931078329 0 1 0
1608 2 11.606965805410194 3.871165276103217 14.874666121449991 0 0 0
865 1 10.910595488203057 3.4632045195458216 13.315724338772872 0 0 0
1511 2 14.003990090172177 3.344288957594452 14.200219259918493 0 1 0
377 2 10.822141125937586 1.7336419940363879 13.835420201148047 0 1 0
1561 1 10.8661027444281 2.111521882844314 15.7245146687538 0 1 0
593 1 10.607142597903703 4.764433790583322 15.92016531354577 0 1 0
1309 1 13.239803027852659 3.4454887054280166 15.76853102012946 1 0 0
478 2 12.380062487917073 2.1534823822991322 16.552950078696732 0 0 0
2313 2 10.21135518326698 0.40177184755153944 15.819554913413594 0 1 0
1221 2 14.930089442084135 0.9536705596068691 14.907276276721968 0 0 0
1584 2 0.701726065406562 7.406749367553932 14.838272603491196 1 1 0
1229 1 0.604281542249576 5.722466779632386 14.391726526422609 1 0 0
1052 2 2.612028470118495 8.818876030283784 14.426848259162009 0 1 0
994 1 1.719399847997405 8.011469736712169 13.224311046652002 0 0 0
1362 2 2.247730661759196 5.390223079127685 13.976855640938492 1 0 0
1248 1 3.5349309019906965 5.281296773750237 15.133722021783276 1 0 0
877 1 2.2419391674902194 7.860645789737265 15.876486397860674 0 0 0
1798 2 3.3710380863825242 6.5703438121483675 16.27350485962822 0 0 0
1276 2 9.547141370120249 9.135797372969622 12.678654019453104 0 0 0
2498 2 7.467743990859794 9.87233059689387 14.589725340051842 1 0 0
1316 2 9.83634951645324 6.024246720364299 15.031592895971372 0 0 0
433 1 8.988799047746484 5.716375348626071 13.53602907987618 0 0 0
2209 1 6.0019548503980955 6.7976238973499905 14.35059717533644 1 0 0
476 2 7.50011082231251 5.831188114775957 14.517963594002158 0 0 0
650 2 5.67095144486942 7.487630630318704 12.851653114324332 0 0 0
1203 2 5.128904947324918 5.311417045071276 14.577686232558953 1 1 0
2159 2 6.054934668102673 7.695765147424823 15.82918059064483 0 0 0
1270 1 7.230747607114486 9.044457828475716 16.092105773681986 0 0 0
1217 2 8.595706632992275 8.081427072317034 16.605976674086584 0 0 0
1224 1 8.435697908852685 6.451052755433604 16.01098169524672 0 0 0
826 2 13.283616244105524 5.001278547367635 16.601077927871124 0 0 0
1578 1 11.145766512302208 9.664921952942054 13.173584886425072 0 1 0
991 2 12.127620668528422 8.587228669501267 14.129483227572036 0 0 0
2135 2 13.615654338885909 6.04598334566814 14.10394219880434 0 0 0
1331 1 12.986917170552847 7.354471480444397 13.24663692033913 0 0 0
313 2 13.734061949303227 7.754886493533039 16.32295244329868 0 1 0
1293 1 14.167196911632109 6.198063348544964 15.740641408790085 0 0 0
1265 1 12.627611266866161 8.965129947529014 15.73518182334345 0 0 0
438 1 1.2312461323630155 12.334434821089 15.006318299454785 0 0 0
1992 1 4.711317240555201 12.901398280558837 13.304590725997874 0 0 0
1021 2 3.9745752490873647 14.424264914922233 13.613698005356417 1 0 0
1477 2 3.4543510276263913 11.671964814909659 13.457590374749937 1 0 0
1076 2 0.861349067946693 11.488967374956166 13.507495233373007 1 0 0
1768 1 3.1233802478941377 10.438336894508183 14.639886488614984 0 0 0
1315 2 4.70313562265565 10.145901502821882 15.155650168486202 0 0 0
924 2 1.8474737188345716 14.089816276705786 15.104430139731626 0 0 0
1751 2 1.9990794219482897 11.016609639949573 15.883871164514359 1 0 0
2163 1 0.24006345621821304 14.492236188930903 15.63371252262483 0 0 0
1722 1 8.71133039538611 10.412430359715183 13.489704206798482 0 0 0
655 2 6.010079909118024 12.293991236939956 14.289170531716252 0 0 0
869 1 5.966246595114788 10.56850654814503 14.07644548173829 0 0 0
812 2 6.734306480121245 14.735610834640191 14.77711677668604 0 0 0
1063 2 8.858082131920833 13.146526607281993 15.448475720599419 0 0 0
1202 1 7.093610262528449 13.17561861917793 15.327048106138047 1 1 0
145 1 14.156057889834033 14.265031939147324 14.589316814207894 0 0 0
1721 2 10.267469059612791 10.74485465302446 14.25199547376278 0 0 0
1835 2 13.662353913664358 10.841808843578137 12.959507866308197 0 0 0
1670 1 10.257962381441494 12.363005645728284 14.754253460178147 0 0 0
1107 2 13.002498284035719 14.12775675111997 13.441182632965537 0 0 0
1044 2 10.391183037078452 13.120811409734728 13.163928230769947 0 0 0
1600 1 14.718896146934672 11.560943054264161 16.26995362131649 0 0 0
550 2 11.035300034118345 12.264068823346195 16.392485542255773 0 0 0
1269 2 13.379986224807634 10.462722418594513 16.321582061514025 0 0 0
1329 2 11.470379169971274 14.722823044541585 16.37702729724343 0 0 0
1339 2 13.93969350073232 13.124146582258481 16.02483746705691 0 0 0
417 2 1.286489585377224 2.9525222758052037 17.605690607663952 0 0 0
2022 2 0.030875886212033077 3.6740074338152624 19.812308698401928 1 0 0
1698 1 4.342535450545728 0.2763626716780298 19.999769453473725 1 0 0
2099 2 2.72811349511282 4.757527171451145 19.368194000362323 1 0 0
1161 2 2.7148305275863036 1.047482482525187 19.484049303986165 0 1 0
1999 1 4.196469775001731 3.845450737002237 19.157272252568834 0 0 0
1901 2 4.104694387690327 2.6690374299653867 17.924292483933993 0 1 0
907 1 1.2317859396779982 4.229037381097063 18.749054809341704 1 0 0
1710 1 2.5988458951825573 1.7756870346667009 17.94806106933357 1 0 0
1487 2 6.680194000414696 0.46554538934058615 16.6963957084584 0 1 0
805 2 5.851225829192105 4.273126384809773 18.979522106483014 0 0 0
810 1 7.2602966518094005 0.786216828135296 18.345262509101527 0 0 0
1606 1 9.049298752352454 2.8105137502134276 19.801155406622907 0 0 0
819 1 8.16907762755729 3.4860939884425655 16.994652007670748 0 0 0
32 2 8.025422664110394 2.425358611562132 18.37679551680524 0 0 0
1593 2 5.934422894220773 1.0653962563377442 19.52743508351276 1 1 0
315 1 6.274644572321348 2.778658459303084 19.983811291600333 0 1 0
2072 2 9.896005727290218 4.331723870508018 19.750931653896462 0 0 0
1706 1 10.15096889247486 0.11296892349746439 19.291334816189842 1 0 0
2366 2 11.498208730691651 0.21910594821584162 18.150356392966287 0 1 0
1222 2 14.345673887514746 0.3392211733639648 17.470428810823265 0 0 0
704 2 13.202331226683818 4.52053362719708 19.307611890946117 0 1 0
1936 1 12.852443024275539 1.233363434469499 17.955788839029015 0 1 0
1615 1 14.303738248006477 3.309503753761908 18.838508778082442 0 0 0
1939 2 13.244240262505073 2.031244961861723 19.442881921994196 0 1 0
1337 1 11.91352377634743 1.9550749744156644 20.803470372424037 0 0 0
1563 2 10.276189789893486 1.6272286704544547 20.14003999026531 0 1 0
1294 2 14.814003074776595 2.9376422744988875 16.979873016380637 0 0 0
1634 1 4.792992204161214 7.362509045870888 17.011175403743387 1 0 0
1286 2 0.18170225642385118 5.817255752191556 18.611095835772172 1 0 0
1754 1 0.6871578504616923 7.626882195445502 18.79442345732267 1 0 0
1257 2 3.7836778500296284 8.769856128368009 17.293313791550457 0 0 0
979 2 4.502620279261905 9.410947066836565 19.89188183860184 0 0 0
1369 1 3.1571206476792923 8.939574752690204 18.93554477038997 0 0 0
1213 2 0.902624185337813 8.353999393430028 17.078743138528264 0 0 0
2056 2 2.284715603256423 7.523765398992034 19.461726588254457 0 0 0
1191 1 2.4172147422750334 6.068645913886119 20.505141159402932 1 1 0
1874 2 7.445666243981315 8.968220286377536 19.74504511664843 0 1 0
1887 1 9.624041211912564 5.605619858164209 18.6372731696086 0 1 0
1687 1 5.846871884925247 8.30187738339211 19.939078879044285 0 0 0
2015 2 7.7645919322907915 6.1364751235621515 20.089166778628215 0 0 0
1619 1 8.534227612961349 7.721569273427209 20.222017719218403 0 0 0
961 1 6.690871035254796 5.721105403510671 18.777824896833273 1 0 0
2154 2 5.622073539542156 7.077771941775764 18.547618245516777 1 0 0
1307 2 8.113625052348889 5.345644163755438 17.506099932543304 1 0 0
1212 2 9.93419289294645 7.483388699877227 19.102837527870005 0 0 0
879 1 9.82915047456504 8.778456117852771 17.631436859479326 0 0 0
1838 1 13.618361775482272 9.63173803929792 20.458267662587698 0 0 0
1319 2 13.575648799746462 9.404881797019332 18.77640898070542 0 0 0
814 1 13.935756431477747 7.9293810078794955 18.04338703033234 0 0 0
2065 2 12.696345929918088 6.998598498213523 18.791481612865265 0 0 0
1674 1 11.621458499467362 7.458218012444692 20.076002634241743 0 0 0
872 2 11.37180778594692 9.084442819751427 16.97688615434274 0 0 0
2524 1 12.484602451683468 5.462513747696337 18.053064041900527 0 0 0
1618 2 10.86659200233079 5.44732301262535 17.481734348983096 0 0 0
1786 1 13.319999289838039 5.396091384680271 20.79514724136626 0 0 0
2528 1 4.744124368022153 10.159524203333094 16.84437490337729 0 0 0
982 1 4.72622041142258 14.951427925616743 20.65075295832924 0 0 0
1416 2 4.777191047167742 14.25834252794203 19.016181157394772 1 0 0
1475 2 0.25888341363273987 14.091405105674529 20.45862184001587 1 0 0
2054 2 4.4925321856032605 11.542995097370802 17.833165550506585 0 0 0
1364 2 3.3173011265060106 12.120922546215802 20.3547797487939 1 0 0
1514 1 3.0133160600216202 11.810472452544401 18.70545774483932 1 0 0
2635 2 2.2100892912608145 13.185257409587336 18.098901765016485 0 0 0
591 1 0.716917693953762 13.998100693652487 18.697539694512283 0 0 0
1829 1 3.3529980611003722 14.44444227669644 18.03916453556403 0 0 0
2156 2 2.127771614752563 10.307590155717323 18.61805873741667 1 0 0
1414 1 1.1882488617538984 10.188341328653857 17.196336750446957 1 0 0
1676 1 9.803515677557616 14.137732941317767 16.685170292310044 0 0 0
1338 2 6.450421665432647 10.116687597606571 17.191101277083405 0 0 0
1036 2 7.462301610699121 14.903670076210787 19.021252745134728 0 0 0
871 1 8.19317081258553 13.4165610913378 19.37283502611904 0 0 0
1660 1 8.212350795346202 10.54084963462968 19.665282614646372 0 0 0
2164 1 6.2454612153750935 11.711818367202845 17.87611359212369 0 0 0
881 2 7.2091384362784945 11.940083846117856 19.29838278531672 0 0 0
556 2 9.55472680796599 13.272803830246497 18.320855972219757 0 0 0
1789 2 6.554814611407919 13.153483026573092 16.982885830527124 0 0 0
554 1 6.143639691831857 14.504733244200509 17.954938018193047 0 0 0
1611 2 9.20367081251248 10.318638541431634 18.200508353947566 0 0 0
25 1 12.412257414963191 13.316511005515972 16.823769145906855 0 0 0
48 1 12.34081355065229 12.27437843637765 19.910515255955904 0 0 0
2173 1 12.460806598336845 10.209961646690717 17.80029074660824 0 0 0
1323 2 13.625012498853744 11.351452619954634 20.636337918612814 0 0 0
2142 2 12.699892098173482 13.436002022165278 18.597571946667397 0 0 0
2220 1 10.220418606497022 11.722316607302517 17.90316841344825 0 0 0
937 2 11.55317604771494 11.196394425357452 18.85031227288994 0 0 0
1356 2 4.679211201255623 3.1939629508048633 20.846672792268233 1 0 0
1595 1 1.6283230057930738 1.040548308738858 20.862410359105247 0 0 0