LAMMPS data file via write_data, version 2 Aug 2023, timestep = 326, units = metal

1146 atoms
5 atom types

0 20 xlo xhi
0 20 ylo yhi
0 200 zlo zhi

Masses

1 28.0855
2 14.0067
3 12.011
4 1.00784
5 18.998

Atoms # atomic

762 1 3.996972567091646 1.340226716881542 2.549869008441379 1 1 0
1016 2 2.560998485111689 1.799169049519924 1.6617177018765532 0 0 0
54 1 1.4852626214617026 2.747071695394862 2.6843932038849854 1 0 0
1119 2 0.15681612124927485 1.9385121714088864 1.5814333767897617 0 1 0
492 2 1.5273158449094906 4.438559415299957 2.191217141358299 0 0 0
629 1 1.3313569323169199 0.6059375941365321 1.1986176990500566 0 1 0
204 1 2.8866886209714537 4.923540571965641 1.009189183565649 0 0 0
780 2 4.843912115829372 2.6471782895378477 3.2874046014514073 0 1 0
14 2 3.094430918292628 0.03232105708702564 3.266782747392864 1 0 0
486 2 5.889669254639082 3.0326310572250343 0.7025455374085859 1 1 0
820 1 8.935264575348308 2.4020160390849132 3.6996310691605316 0 0 0
197 2 8.601546260489997 4.32582274470217 0.520473586163475 1 0 0
686 1 9.591286615747965 0.7788856029588649 1.3051659878317698 0 0 0
110 2 7.348569711841484 2.0059426517369676 3.1683970446339487 1 1 0
280 1 5.505040484957683 3.9770931692088882 2.098204481995919 1 0 0
308 1 6.695259785540319 1.5548230008514632 1.529935787252082 0 1 0
1144 2 5.419619566615493 0.5246977758381295 1.8160589070439945 1 1 0
418 2 8.864602481185896 4.091001045893488 4.274475821323482 1 1 0
538 2 8.00676990948852 1.0958327570709196 0.5605690291576241 0 0 0
79 2 3.3744409685189067 3.5265782026319754 30.053358747827566 0 0 0
496 2 3.444496081487489 4.745677222423033 6.991081359212148 0 0 0
681 2 1.5178961343063553 2.764874511942259 6.755520361217494 0 1 0
615 2 2.391621952167546 2.5824962881939046 4.3451362950228845 1 1 0
701 1 1.111402892694038 3.4722755479122673 5.204763345354469 1 0 0
611 1 2.86791873636919 1.9385940343072154 5.891347268205177 1 1 0
660 2 4.277028632424584 2.2317618945620104 6.8553827605248205 0 0 0
1050 2 3.12523179065619 0.18518003787804097 5.891546567130897 0 1 0
610 1 2.1712457373548952 3.9543787875021894 7.930282771799469 1 1 0
440 1 4.987959931958305 3.844530488446705 6.825867172567372 1 1 0
499 1 7.868903040455826 0.3100936898299635 5.7003623041159415 0 0 0
484 1 6.079848139822224 2.1763354541549775 4.373311301373121 1 1 0
362 1 7.680825806911647 4.373234875014858 5.565211208342715 0 0 0
380 2 6.193198652050148 3.533869186446804 5.474832323488524 0 0 0
252 2 8.469807260247862 4.011789717792989 7.068103028069567 0 1 0
46 2 6.122366285480805 0.651283605973818 5.265499185017558 0 0 0
267 2 9.07505962879524 1.498915791878315 5.187023895774727 0 1 0
926 2 7.806221124271262 0.32269531744271207 7.443583193497765 0 1 0
651 1 7.485524520254549 4.881820810544185 8.246249972582035 1 1 0
930 2 5.852910166931191 4.332242118930107 8.207730394704866 0 1 0
591 1 9.83719291426499 3.303637275379573 7.870959711125784 0 1 0
283 1 4.021662747467004 1.8332235019060026 8.521112180715829 1 1 0
420 1 4.910499366178521 4.780774604806312 12.66207945307643 1 0 0
160 1 0.4491065666733656 0.05219055935666263 12.222578929025309 1 1 0
301 1 1.9603575956169577 4.882489970750177 12.408169750276159 0 0 0
388 2 4.8346588576668665 4.137538546712934 11.016310594054627 1 1 0
822 1 1.4371296960228575 0.5534377394163741 9.483961432901342 0 0 0
284 2 3.0356420019183767 0.4767894868190176 8.837511120309173 1 1 0
370 2 0.37120190062559044 1.9648429540465913 9.479351692680059 1 0 0
924 2 1.6316885733022206 3.465419958107826 11.437890200018211 0 1 0
153 2 3.899725933145934 1.8452365210926986 11.850327865402555 1 1 0
963 1 3.3127335564536824 3.2230590345524304 10.874013265197451 1 1 0
444 2 3.0877386974318664 3.118441996110159 9.16643941029338 1 1 0
1012 2 6.707415303453248 2.3632680159178836 11.517666629957976 1 0 0
804 2 7.617016701307709 4.2210539535754465 9.820172671862391 0 1 0
199 1 6.126053416439842 3.338292761019084 10.04472900372014 1 0 0
881 2 9.42077950171925 2.13496382030626 9.161084669002154 0 0 0
648 2 5.62005271107878 1.7126682814985073 9.197303717135418 1 1 0
845 2 8.975298029213464 0.6836767832527737 11.546657098708001 1 0 0
972 1 9.139518845460564 3.585685303632744 10.086669321484989 0 1 0
935 1 8.264340265200126 2.1591044762896447 12.21385435668111 0 1 0
250 2 9.2651445317996 3.4419315977876193 11.736679836574044 0 1 0
554 1 5.5922796667528285 1.1909083343370301 12.125484880649596 0 0 0
558 1 6.44534854594325 0.3517784937552414 8.53926717089862 0 1 0
852 1 0.5208023534822092 2.05705064923503 14.681290387566845 1 0 0
1086 2 2.4208583247208604 2.211140703917908 14.809720562855128 0 1 0
135 2 0.9729548676235764 1.5351068974381448 13.040665814796437 0 1 0
323 2 3.3587481813750557 4.365956217212995 13.36200579744878 1 1 0
1138 1 2.7550465426330653 1.5105397757933858 13.130840656553962 0 1 0
1044 2 1.9572113920961776 4.959854790471623 15.598301531205584 0 1 0
953 1 3.2332548575011235 3.8809850796496357 15.35046031486294 0 1 0
960 2 4.383887648549405 0.44098363715493943 15.75833895995889 1 1 0
1097 1 3.0992673903235888 1.4017026500872354 16.280220076664392 0 1 0
740 2 6.053543995488276 4.264371830306061 13.990675132905322 1 1 0
841 2 8.276612328749867 2.3632629479187224 13.955585788429001 0 1 0
55 2 5.982285180322264 1.1719092110433669 13.827799041912241 0 1 0
964 1 6.658796745085924 2.649576582357903 14.487402447897257 0 1 0
870 1 9.75729854600004 2.3633058694648885 14.819190835791792 0 1 0
959 2 7.030595231785492 4.931924066625294 16.788796665808086 0 2 0
1027 2 9.734338105103143 3.8139111222330455 15.845044293497581 0 0 0
1074 1 5.854348288332063 0.8842436215594807 16.60266490861842 0 1 0
478 2 6.38070929144192 2.479527063514726 16.23012739191629 1 1 0
1088 1 2.388388014523135 3.33920753284834 18.281244009735776 0 1 0
482 1 0.09718824970442344 1.4590943378374888 29.785399043444052 1 1 0
1142 2 2.2059122984317705 0.24468259971012768 17.17971616908245 1 1 0
235 1 4.800575902474347 1.8956439851489297 19.369656129485257 0 0 0
141 2 4.73472947838689 1.5307610550719033 21.206532308787803 0 1 0
952 2 0.8438933523992981 2.506799322003111 17.96832315158709 1 1 0
38 1 0.606212552934574 0.8109875067801277 17.4419508116074 0 1 0
662 2 3.1891098740190054 2.536629230750334 19.583337821894165 0 0 0
275 2 3.4109718841900976 2.9423874834212125 16.92201789787524 0 1 0
1064 2 5.294925807922352 0.6088160205000734 18.250818864481854 0 1 0
846 2 5.807121110027933 3.245363913543707 18.927227672495665 1 0 0
1076 1 5.972132511494957 4.515703839169281 20.108092977108075 1 0 0
65 1 8.802650176029655 1.5986212895776635 19.42507842794594 0 1 0
1122 2 8.429599824612309 3.115628966644716 18.44847324243945 0 1 0
119 2 9.115168609233727 0.16824742583034707 18.40993536948819 0 1 0
941 2 7.668962372384223 1.1914221319592622 20.623977971146427 1 1 0
21 1 6.854934179231254 3.438395210281652 17.57120335010184 0 0 0
1130 1 8.562419744822641 4.802073883080809 19.52786878581927 0 1 0
237 1 4.90841730068589 0.07063071787426234 22.376285541240986 0 1 0
934 2 3.1241006610240656 3.5816641090092523 22.6482032205404 0 1 0
779 1 2.987993302294649 2.375122746536939 21.309990084749174 1 1 0
1054 2 1.4040343011493255 1.5307385436611554 21.378247868880685 0 0 0
766 1 0.05536160844558246 2.4777777581450335 11.218702081035763 1 1 0
140 2 4.2357439181051575 0.7955742741056676 23.791959170103798 0 1 0
170 2 0.8587815537085347 2.9782847743481056 24.33364307907458 1 1 0
349 1 2.546327250282148 3.61512815434721 24.37929049069152 1 0 0
932 1 8.153528049177593 4.414381043789272 22.38191668100484 0 1 0
127 2 6.844604811155034 3.7178689430804748 21.427628041558155 1 1 0
727 1 6.60876042113101 1.948294134465263 21.8568998559429 0 1 0
1103 2 6.568521569952994 0.16574252186946817 22.42715158298849 1 1 0
739 1 5.1997111730857615 1.9200397194373124 24.687974534967005 1 1 0
249 2 6.550014561590615 2.5027876453079383 23.654194234446376 0 1 0
105 1 7.785083941284123 1.8186144326901796 24.761213764113727 0 1 0
173 2 9.527359794344864 3.4571506234182863 22.907269293895215 -1 0 0
23 2 9.082311673130835 0.7547515215648057 24.15152974894862 0 0 0
583 1 3.116109164222787 1.5694986489796448 26.625680067564236 1 1 0
913 2 4.311387255817741 0.3428504252790762 26.97057595538857 1 1 0
1029 2 4.117968227232349 4.983076899961271 2.244205070221411 1 0 0
174 2 0.4146048802131111 3.0403881163232955 29.428732706427393 0 0 0
374 1 0.4086227900412813 1.5725963066951325 25.293911680393634 0 0 0
96 2 1.5046998210639482 4.283880660446594 27.598883852794977 1 0 0
106 1 2.0965632427477607 3.398154954038112 28.98332770940208 0 0 0
296 2 3.786717343328263 2.7892178058573225 25.465454568327527 1 1 0
147 2 2.557568529126445 1.7739763994108573 28.250304550424097 1 1 0
981 2 1.924718260783075 0.7926836852038762 25.66335917296667 1 1 0
1018 1 8.067652717757603 3.7708767947043578 26.857531681578294 0 0 0
1143 1 5.433556471777152 4.11350441425064 27.670118944431525 1 1 0
88 2 6.482983592584772 4.18682837336098 26.24882808271102 1 0 0
454 1 5.834472523274831 0.967245191604863 27.40610567186249 1 1 0
28 2 8.789296907489822 2.9726217276368403 25.557167451338746 0 0 0
1104 2 9.217420882178596 4.869993441048133 27.52604184928441 0 1 0
322 2 6.463593910025368 1.368349953479206 25.844920969232067 1 1 0
107 1 8.075285294447566 1.0609697600916876 29.025411297891132 0 1 0
589 2 9.362633857487715 0.260907835684262 28.244602341847727 0 1 0
705 2 5.394023855197856 2.4609661412695347 28.341037682559 1 0 0
157 1 6.906036120619332 3.0690107294438635 29.699573874797597 1 1 0
382 1 9.954773882586174 3.8266803893355794 28.7842863477097 0 0 0
304 2 8.325670914036102 2.8269568657653465 28.46296065619278 0 1 0
920 2 6.462456870174391 4.747931084781647 29.02971634693936 0 1 0
179 1 3.9948047411076044 2.0390801450296454 29.52300297045994 0 0 0
714 2 3.881340619349463 0.49649503297009623 30.154862380851668 0 1 0
580 2 2.4022209740162843 7.041635502998542 3.567329344823974 1 0 0
207 1 1.2495364748033342 5.707862828531278 3.3599407958929333 0 0 0
241 1 2.0527632160738642 8.759248921908075 3.657783573176955 0 0 0
229 1 3.617067369211758 7.974152101658551 1.1511699903844692 1 0 0
602 2 2.1354018491479185 8.999215423505353 1.8712686009802528 0 1 0
387 1 0.34579921101797534 8.727431861975175 1.8154417740310638 1 0 0
154 2 0.33942873194172823 9.050826280436945 3.594140277285006 1 1 0
495 1 4.018173397457908 6.359019007562845 3.306258421601392 0 0 0
529 2 4.8016923714321 7.576663969369032 2.3809243958847732 0 0 0
364 2 2.708527904496605 6.575821033299493 0.5130717147184887 0 0 0
672 2 0.22417363214481975 7.151189130790774 1.1448297296072294 1 0 0
843 1 0.9361687516181159 7.366202876753822 30.49980207023586 1 0 0
43 2 3.9342106357279483 9.24677907837952 0.14223551807555793 0 0 0
504 1 6.4573329381874425 7.119085569550125 2.0578752165142413 0 0 0
193 2 7.5754081422619866 7.965883729385989 3.1430072006199588 1 0 0
793 1 9.242753527301945 7.773290430969643 2.582322749924472 0 1 0
422 2 6.887873912337803 7.652559137982799 0.4929781205672091 1 0 0
345 2 9.584149906273291 8.106018354148317 0.9290688113532481 1 0 0
439 2 9.579372445944028 6.060645887947346 2.7967094633045755 0 0 0
112 2 6.707322745759229 5.332112523875265 2.3865583058845656 0 1 0
385 1 8.386903611519678 5.046801869753472 2.016386643652892 1 0 0
957 1 2.913310908790839 5.9552988524233275 5.896739535859861 0 1 0
956 2 2.6097280433151275 7.443263951627879 6.8730889629671506 0 1 0
679 2 4.4287285231056766 6.084844228743515 4.961495641354894 0 0 0
802 2 4.201898716692067 9.70980711752434 7.33552967991687 1 1 0
122 1 4.456268422947257 9.847854700079987 5.55083746272038 1 0 0
570 2 0.021666315785071277 7.064533459591137 6.593901398690873 1 0 0
493 2 1.5851216919469435 5.13823695799634 5.017384921328826 0 0 0
395 2 0.9069069800758603 9.922891093930962 7.073581576571495 0 0 0
732 1 1.0757334910221292 8.165553220700014 7.460848555726172 1 0 0
447 2 0.9229535030920397 5.117149984826852 8.382151989253627 1 1 0
480 1 3.934297974298566 7.997939539942573 7.78962369664046 1 1 0
435 1 9.550294131214354 8.558907076446257 29.265158427440817 0 0 0
1114 1 7.860490665185476 9.733646844769432 7.492402993188851 1 0 0
356 2 7.257840039507013 6.077423770939608 5.681874230150493 1 0 0
695 1 7.172002835091431 8.905219391913787 4.539732954652224 0 0 0
555 2 8.02312709499055 8.634944544530489 6.133543440338741 0 0 0
764 2 5.537571760397982 8.569319779371057 5.052095919198801 1 1 0
668 1 8.531430630424847 7.004028778620715 6.46084645689441 0 0 0
620 1 5.710044237804995 6.92954474466014 5.747174490883082 1 1 0
461 2 5.442037432457412 7.212243860529582 7.3938433315259 0 1 0
551 2 8.31706789788507 6.554449902762216 8.16119399784511 1 1 0
550 1 3.689327509067964 7.048520539657701 10.982006640185636 1 0 0
801 2 0.03082269903707585 9.566976029726542 11.814936290926045 1 1 0
1051 2 4.300523971532447 7.633929294055628 9.472710500536571 0 0 0
597 1 1.5088181582185605 9.079970976357117 10.772350172791459 1 0 0
354 2 1.1663825004218311 7.950543798799493 9.307415842205193 1 0 0
675 1 1.0442069917446617 6.236539815540036 9.808089099721265 1 0 0
202 2 2.9913982719336487 8.477298372999789 11.626171333214968 0 0 0
509 2 2.35377590624556 5.924475162788927 10.9687655028611 0 0 0
757 2 6.524661450888205 9.064694674992998 11.886708358717732 1 0 0
4 2 6.586285155642643 9.295271795280563 8.899625715285286 0 0 0
572 1 7.356703590206843 9.725720347102259 10.500478765058087 1 0 0
587 1 5.974851280788045 7.568469132465675 8.99017523976447 1 1 0
787 2 6.934052540328759 6.912498147155502 10.243945598320321 0 1 0
522 2 8.800355871678082 8.847070428028356 10.064450183407223 0 0 0
312 1 8.62032070877959 7.134181675579119 9.812050937543598 0 1 0
861 1 6.566886031306104 7.279581223055416 11.86829834555332 0 0 0
1079 2 4.988419323076418 6.577751347761157 12.203450203572787 1 0 0
983 2 9.845637675753284 6.436257831784044 10.874637493834946 1 1 0
886 1 9.715478050334745 6.749554703441066 12.613473343641159 1 0 0
44 2 4.89896858250652 9.249855017418323 14.162607813149453 0 0 0
485 2 9.871371965944972 7.848666521184907 27.45372858599464 1 1 0
990 1 0.397682083187211 5.005118707578148 15.034227576388194 0 0 0
567 2 0.5064838647631275 5.36324112386326 13.277142739283159 0 1 0
683 1 1.6608877402330877 8.172610828183137 14.763530615640422 0 0 0
891 2 2.2032436790151473 9.500362494139452 13.873136829478106 0 0 0
524 2 2.8635887320548585 7.0969810884373254 14.037557398803912 0 0 0
568 1 3.5435351212021002 8.490041096982676 13.277230371865212 1 1 0
1077 2 4.325056173433757 5.25479731636069 15.860229220923754 1 0 0
751 1 3.031245703389534 6.305750906385701 15.541443356424677 0 1 0
797 2 2.305312113582349 7.6725376252411674 16.383510421997112 0 1 0
1145 2 7.856467700377157 9.089380597185771 14.424216308228084 0 1 0
656 1 7.781622705893692 7.355973760785842 14.46453286950536 0 0 0
566 1 9.597324889366261 9.331972220792037 14.473489085789376 0 0 0
903 1 6.465302828229809 9.772357282690722 13.500432594807103 0 0 0
653 2 7.938282601687889 6.817363545607087 12.842328949123592 0 0 0
955 1 7.790250096197172 6.499863832596869 16.708623440039748 0 1 0
923 1 5.948575885246123 5.31145799941525 15.447713273730532 0 1 0
166 2 8.992129974775978 6.571416404191925 15.473923991939449 1 1 0
628 2 6.488242720111788 6.9497127661985125 15.488896239514391 0 1 0
246 2 3.560471857864935 7.482847212115126 19.061177400293797 1 0 0
831 2 1.8890136632381156 9.736014103263818 18.19095099694452 0 0 0
1041 2 2.1645524361138326 5.076039066390502 18.613076445698685 1 0 0
1039 1 4.738605164687905 8.46091366508096 19.883455386077276 1 0 0
754 2 4.543817325464864 9.235949114988067 17.169238918772873 0 0 0
383 1 0.08301485916542901 7.997234121225436 20.399526998840525 1 0 0
863 1 0.27139855999353457 8.870949603644888 18.19484947622222 0 0 0
37 2 0.6419829599745959 7.3467203353296755 18.87051844270765 0 0 0
996 1 0.5785416706407766 5.825210587918047 18.112563890637418 1 0 0
39 1 3.138648696894332 8.440981404424281 17.678402530994408 0 0 0
1065 2 1.509728706217551 8.766025530466203 21.072560514942516 1 0 0
806 1 3.117156620467844 5.980904497850191 19.814080133535633 1 1 0
1028 1 7.397523312581296 7.457765253613544 19.35615247669934 0 0 0
1090 2 6.166211995074078 8.573236692710053 18.96143119901942 0 1 0
720 2 9.014386584442073 5.275019546561196 21.124433287096295 0 0 0
271 1 9.201255586381901 9.221859203908624 17.656405803181787 0 0 0
16 2 8.412284365332892 7.592178529118703 17.917369160901888 0 1 0
929 2 8.157609885042273 7.9171770659768255 20.91083513148836 0 1 0
659 1 6.126338567109028 9.92589941625396 17.78303548990347 0 0 0
1093 2 7.070963959428522 5.688817640764837 19.4017999179816 0 0 0
165 1 3.8271751332413 5.1110479265349555 22.16918678728231 1 1 0
232 1 2.2692973388264437 7.849324209096338 22.31062244005714 1 0 0
67 2 2.630752700843686 6.302747084364311 21.586715445356596 1 0 0
1116 1 4.974090902008688 7.512153817717212 22.88590517063555 0 1 0
184 2 3.61896104415477 8.591412874679998 23.069472772507133 0 0 0
1000 2 2.372892718071713 5.2211558061993415 25.039250379042322 1 0 0
361 2 2.7248229771042674 9.620451974757962 25.29820051386853 0 0 0
914 1 1.2300074856286718 9.475213237204676 24.542967390037795 1 0 0
1141 1 1.073036210780633 6.352070088155208 24.923689414732014 1 1 0
126 2 1.03664807927848 7.805930386461757 23.694096423686684 1 1 0
796 1 6.83436159939515 8.689662929552012 21.78224091067989 0 1 0
472 1 9.520884318325619 6.942000141622575 21.375520671696194 0 0 0
893 2 5.439653046684962 7.753586531431364 21.25152932930966 0 0 0
1084 2 7.779566364664542 5.376697490934033 23.80215207705136 0 1 0
344 1 9.143477144765745 6.3932807771355815 24.357723269400495 0 0 0
1020 1 6.5401450226313935 8.025805127957092 25.1249850848816 0 0 0
265 2 6.435685776936788 8.269392440439542 23.450955238419184 1 0 0
335 1 6.2266336268506155 5.258563195787392 24.6631699710118 0 0 0
854 2 4.96384978791951 5.762793872736167 23.32270836733608 0 0 0
1118 2 3.3306012758086774 7.267006960011332 26.69389849849417 0 0 0
1107 2 4.078437994083409 5.061585100857918 27.43508691370104 1 1 0
47 1 0.33344574211844513 7.513354070234463 27.983055694041873 0 0 0
71 1 4.891571978579495 8.932569064475661 29.029585702126074 0 0 0
408 1 4.804179819027836 6.593979490709769 27.075315273218905 1 0 0
402 1 1.9675221317711542 9.848653026245016 28.89339636995401 0 0 0
465 2 3.544289546502879 9.550539975996434 28.130243887635448 1 0 0
282 1 2.457858652405604 5.584709349801354 26.79595410420348 1 1 0
245 2 4.411139192012291 5.011434446322528 20.525910526373707 0 0 0
986 2 1.4774166287831454 8.22097381358268 29.05147606016842 0 0 0
445 2 0.8534912201693148 6.6778122643512 26.585165690034035 1 0 0
223 1 3.6633964201484654 8.917008755469283 26.475665213846764 1 0 0
97 2 5.842079301127397 6.578033512692047 25.686689195647585 1 0 0
319 2 8.35172018631805 7.088647588403766 29.420142370745765 0 1 0
233 1 9.521736656487557 6.271312626357099 28.40627411935171 0 0 0
156 1 9.053052228097755 8.827376416610427 26.149907536301622 0 0 0
120 2 8.236200393753467 7.577707644821053 25.345336170200774 0 1 0
41 1 6.794057184758328 6.407007445762708 29.189359399097192 0 0 0
1019 2 5.484779558103716 9.11707826227874 26.057947168169733 0 0 0
885 2 5.553989561216537 7.344038374724305 28.526695838706537 1 1 0
300 2 2.8329768186771194 9.904450013133287 4.795069047353389 0 0 0
1040 2 0.0019556284808077916 7.927505355354421 14.3859846872267 1 0 0
928 2 9.982525403357837 5.076044400474476 18.622701409093054 0 1 0
324 2 3.849811838645544 11.108123210741681 2.198858613832258 1 0 0
458 2 3.31090736910387 13.401809592976212 4.006990427825265 0 1 0
330 2 1.5947877449735561 11.797067360660291 1.901105128090549 0 0 0
619 1 2.639637192974154 10.574204354473542 1.0057005208831695 1 1 0
187 1 2.7149157684699934 11.947784275263018 3.2023034747078607 1 -1 0
608 1 4.069847670583672 14.569321180258857 2.8936893549178717 0 0 0
543 1 0.03675661591695535 12.50950095941513 1.9842555158825363 1 0 0
226 2 0.17261686109255794 13.948763087702488 3.071435058816766 1 0 0
116 1 6.942465584285676 13.803409067259953 1.9943430991411322 1 0 0
247 2 6.55009316375453 11.252180867097534 1.1439778529178615 0 1 0
520 1 5.021044777952635 11.965936453149089 1.4091077682360582 0 0 0
977 2 9.188494513677547 10.542926624221094 2.1652483396964444 1 1 0
295 2 9.56027370870441 12.556982744274798 0.2183296336281611 0 0 0
1057 2 7.124568477074725 13.990288022754168 0.23600420884752826 1 0 0
360 1 9.770859339763758 10.838958082489619 0.5388397400012516 1 0 0
405 1 7.595031624345785 11.1623372126307 2.4949273572169246 0 0 0
121 2 5.193538573079177 13.577862649797273 2.0312334537112657 1 0 0
691 2 7.976980886454912 12.778935876649598 2.8866536162969285 1 0 0
429 2 7.215076718517397 10.5468349322779 4.123826488173529 0 0 0
171 2 2.735579685873738 12.364972406823027 6.4998495298763554 0 -1 0
737 1 1.8190867866065783 10.90187227515533 5.9568278624132756 0 0 0
968 2 0.5743471218496873 13.974524484768303 6.021083201241058 1 1 0
328 2 0.7702071822849135 11.558890860605814 4.65929848001697 0 0 0
316 1 4.1193092640001625 12.947404863109632 5.602161979837368 1 0 0
459 2 4.978437558785732 11.49971906009369 5.2445734864524605 0 1 0
850 1 0.0291578055476109 13.138774153766214 4.581171504862391 1 0 0
75 1 6.301893454940093 11.57720285357967 29.33414000432301 0 0 0
689 1 1.7147269918616586 13.479705674202423 7.443986024234985 1 0 0
859 2 3.471083516756054 14.502279158344928 8.534523590021063 0 0 0
731 2 0.8510306424295982 12.328364705032323 8.393112018912907 1 0 0
365 1 7.078400505212556 14.475425861932774 5.989192870190966 0 0 0
603 1 9.162617431896548 12.89071587641949 4.327666223822405 0 0 0
526 2 5.365240682966105 14.007059312035645 6.4272397317420396 0 0 0
760 2 7.625615546862083 13.036097206430545 5.289682343656011 0 0 0
396 2 9.855070618304003 11.294966589056422 5.003801243525275 0 0 0
680 2 6.749021456600833 11.011932474405196 7.109022467009806 0 0 0
433 2 8.35227750672941 14.746791665704707 7.1970540616116745 0 0 0
521 1 6.699488872011266 11.600907304016388 5.434899361592043 0 0 0
786 1 5.44433285639407 10.53005644134705 8.2264973939639 0 1 0
562 1 5.165030547657283 14.629968806869215 8.071749706432044 0 0 0
814 2 9.43694763422621 10.205904405127828 7.943929881960969 1 1 0
742 2 0.16796260748616654 12.455208072265956 11.132657357834649 1 0 0
305 1 2.841974698817866 14.603802065016925 10.224246631437026 0 0 0
842 2 2.16672602923019 10.570949504898257 10.230826174150794 1 0 0
950 1 3.568044151304457 11.445359147973207 10.774747906745104 1 0 0
553 2 2.778260469712369 12.947861287218684 10.502966182869722 1 0 0
515 1 1.3792138519663002 12.114416441014694 9.988739847670498 1 0 0
678 2 3.930841350427346 11.38627845892628 12.506098771002666 0 0 0
76 2 6.452981737824955 13.973494846902147 9.125002734763068 0 0 0
443 2 9.204977181877231 13.084842733750325 12.39419838591229 0 1 0
709 2 5.777218629502038 13.563349808912271 11.72970978335528 0 0 0
564 2 9.06523505860557 13.01610184817211 9.31872029814772 0 0 0
606 1 8.9566059034832 12.244081213503488 10.878325876825775 0 1 0
195 2 7.445384858933767 11.460305483864905 10.670821645043427 1 0 0
791 1 8.157570287173586 14.384660234870058 8.85000558996757 0 1 0
826 1 6.161169080778636 12.638700799782734 10.267035325427 0 0 0
98 2 4.966504833841875 11.49371496346498 9.64391403552941 1 0 0
1013 1 2.588233784040067 13.702870235158784 14.18192146488259 0 0 0
684 2 4.284605662484219 13.381185082056435 14.300405431725492 0 0 0
211 2 2.2522899985333424 14.748563511231135 12.915973723148122 0 0 0
1085 1 0.22867904623068913 12.051056420675438 14.686733849244723 0 0 0
733 1 2.796387848184797 11.055150650849708 13.927600359961673 1 0 0
497 2 1.660892164789282 12.28876245346455 13.8216111515808 0 0 0
546 1 0.3660040581054036 14.8969716069561 15.289155397910553 1 0 0
810 1 4.617487242497231 10.113623668730467 15.720342920683379 1 1 0
858 2 3.1399334045970315 11.051745877624928 15.729928690172198 0 0 0
910 2 1.9856828548100047 14.241077926454492 15.723672651875658 0 0 0
761 2 0.376867737111921 11.427027444209372 16.345310379501385 1 1 0
707 2 9.276512543083538 14.591993929514183 14.840956766910633 1 0 0
819 1 9.451491235872101 14.68834515783985 13.077951168422146 0 0 0
864 2 9.840984790630527 10.482322396798011 13.12994172385536 0 0 0
803 1 9.589262077681642 12.013536328327973 13.72308621166416 0 0 0
898 2 6.471515403140387 11.521874921197918 13.628138294171963 0 0 0
501 1 5.167270957739964 12.522730607317351 13.02790182179598 0 0 0
511 1 6.999163263570971 11.983730947550155 15.23938240638095 0 0 0
696 2 6.663567166878427 13.721028068852162 15.387234838693951 0 0 0
1061 2 6.0342409981827965 10.94298643141985 16.196295314479865 0 0 0
49 1 9.852193547535546 13.20626576626138 15.766934829724672 0 0 0
532 1 5.030102431092999 14.066788816526492 15.720300277160561 0 0 0
777 2 8.702522437225518 11.964301547925658 15.233887815535757 1 0 0
906 1 2.7499568528105005 13.910765041460365 17.295111317469967 0 0 0
161 2 3.9314467415373255 10.010910727274045 20.132646309581816 1 1 0
24 1 2.209526245886702 10.059867109491691 20.08450792788096 1 0 0
699 2 4.836458304065166 13.232146089930906 20.07504760686932 1 0 0
575 2 4.434214755032088 13.387326253101088 17.17478757194265 1 0 0
1015 2 1.3376270993745714 14.259893671878354 20.437233342941056 0 0 0
63 1 1.9346094836053078 11.211691932374189 17.043903151090355 1 0 0
415 2 1.2351998843669532 11.423707823356498 20.504513541710665 1 0 0
882 1 0.9303410799619612 12.858616523080771 19.519365734349247 1 0 0
925 2 1.9783512411752877 12.599597211887662 18.114741017485386 0 0 0
899 2 8.114439516795073 10.119994534253557 26.82085708572786 0 0 0
936 2 7.209234443740033 13.226616012274038 18.201239973128377 0 0 0
1021 1 8.932518832589528 13.448896952695357 20.897607539618978 0 0 0
318 1 7.632721105831735 11.662345554015586 18.784048951683015 1 1 0
256 1 5.051303079822694 11.300025275610189 20.740642876760738 1 0 0
921 2 7.910552122213472 10.30710147908521 17.801709014176282 0 0 0
980 2 5.889529066738852 11.290927805596152 18.96273022649881 1 1 0
1126 2 8.899398380433114 12.014573933182078 19.86750980515757 0 1 0
399 1 5.480236997090232 12.994704728490486 18.525863399717018 0 0 0
1052 1 8.51269238777911 14.327996846396301 18.221388224800883 0 0 0
834 2 8.985931891222783 14.830876016859674 19.807706972476808 1 0 0
752 2 9.941361324000185 13.527043769919686 17.461265617473423 0 0 0
710 2 0.4096426697365184 12.711180790521704 22.87173929829177 1 0 0
254 2 4.312766601098764 11.4334441867257 22.377414611044927 0 0 0
62 1 0.4193919349289133 11.146731766897782 22.080204837315215 1 0 0
549 2 2.7681971684270033 13.742042683771375 23.309661512142533 1 0 0
69 1 4.377797486549849 12.948294318809586 23.258716642171603 1 0 0
61 2 1.7055899329601776 10.696563555691048 23.333281784782052 1 0 0
281 1 3.4795581382335117 10.396664700162175 23.65998454577631 1 0 0
398 2 3.617554819941918 11.943948116900524 24.704941269143394 0 0 0
292 1 1.7022188513207328 12.519974964026165 24.009457850831105 1 0 0
315 2 7.53640223747997 13.013339827570054 21.784424167665428 0 1 0
1042 2 5.015710440791915 14.368567540065936 22.307310430232967 1 0 0
15 2 6.6377380609696095 10.371793158870043 21.39706589741281 0 0 0
866 2 9.541204200741328 10.674203004557947 21.969195806930415 0 0 0
266 1 7.824700124060868 11.31700244990255 22.180190422109735 1 0 0
117 1 7.172174344578289 12.301912574725666 25.018801244759324 1 0 0
231 2 7.943369427926101 11.096530747359873 23.948676221414914 1 0 0
52 2 6.025353440981066 13.090347228523443 24.073204071399378 0 0 0
1001 1 9.630788419081258 10.661555339013324 23.764680709786354 0 0 0
72 1 6.613965265044188 14.052674493292415 22.80778865306533 0 0 0
352 2 0.806178104244556 12.46255264245933 25.56283284107797 1 0 0
424 1 1.2288226506293234 12.077015405891986 30.47374002625379 1 0 0
287 2 4.280718078168241 14.327464719224405 26.002186311554535 1 0 0
189 2 9.268620152467069 10.134181189081641 29.41606584065973 0 0 0
215 1 4.384611502944843 12.558378873146332 26.13878623377418 0 0 0
505 2 0.959481354462092 10.804681069298008 27.744934324942133 1 0 0
210 2 1.1266161701041857 13.890174135589598 27.837624995431884 1 0 0
130 1 3.893075678972289 13.079861672732905 29.251254285588423 1 0 0
8 1 1.6291607600258355 12.31740416037331 27.134107981630105 0 0 0
1135 2 3.3645394381590923 12.37543611964664 27.589551216859263 0 1 0
785 1 7.502362920293255 13.998595810055628 29.168940576722225 0 0 0
393 2 8.51511809018434 13.40107040412086 25.4669981791819 0 0 0
368 2 6.030807597986417 11.882427259172122 26.351726480392408 1 0 0
42 1 6.394064325273966 10.29140070477894 26.91429425653734 0 0 0
434 2 7.739898784734971 12.308322541031197 28.796315751412834 1 0 0
339 1 8.940204065282515 11.120016621531434 28.11220933678682 0 0 0
293 2 8.925031404329188 14.772941241598872 28.6071852516035 1 1 0
586 2 6.151757006048864 10.06819190703931 28.64130041545692 1 1 0
277 2 5.100636561370283 12.29960169218384 30.107429903400003 0 0 0
430 2 1.6679107725231812 10.5327614029951 30.426610430699146 0 0 0
68 2 2.4506709441857226 13.248021452461726 30.226103059654076 1 -1 0
222 1 1.342599512953422 14.334002287657457 29.511711993157235 1 0 0
491 2 4.301424614014827 14.785182796264937 29.064619608946767 0 0 0
1091 1 7.783528576438614 14.99583041823928 15.571033293848812 0 0 0
1095 1 5.051499431449608 14.997906409810591 20.674539950452314 0 0 0
431 2 2.54427152654418 17.800951939588327 4.0658982374933705 0 0 0
350 2 3.792540898800266 18.25431089457458 1.2872101748010372 1 -1 0
1075 1 2.709623653129512 18.545269505514234 2.527121649163024 1 0 0
455 1 3.8911027153935924 16.67293121407873 0.7363962666223473 0 0 0
912 2 1.232998872794956 18.906538717326576 1.6111088118227574 2 0 0
464 2 3.040555730250128 15.43160608070316 1.712473325607065 0 0 0
391 2 4.742667041541503 15.928813858000598 3.758186778726156 0 0 0
238 1 2.16901438623103 15.087782601883113 0.3227838544470184 1 0 0
340 1 4.805568594979871 19.435119572190782 0.6052186888637944 1 -1 0
1098 2 0.43936939906622574 15.024910924448369 0.004986876042822551 1 0 0
494 2 6.87544611432769 17.89197889968159 2.764437436274073 0 0 0