(written by ASE)

956 atoms
5 atom types

0.0                      20  xlo xhi
0.0                      20  ylo yhi
0.0                     120  zlo zhi

Atoms # atomic

     1   3      0.6148463708452826      6.0825531068675565      11.994841090440421
     2   3      3.3643197178283395      4.7818060410992675      16.037556401187125
     3   3      2.1967246706940937      4.5556172584461567      15.671936026451462
     4   3      6.4798076232692043      1.4989062540782381      19.239626666828695
     5   3      5.8343539127310819      5.2243140033384847      17.846172883162922
     6   3     0.19053879605042406      3.9055301242432656       17.78919632428417
     7   3     0.73175146881460418      4.1509588728209268      19.042839164703778
     8   3      6.5751972192410699     0.61562808381370782      18.370334769480294
     9   3      8.8776736817422215      5.7240079318553736       18.89041907341327
    10   3       2.064071355781353      6.0908714693854922      19.004296237924734
    11   3      3.1790043338619611      5.4083905726181003       18.74419803547984
    12   3     0.65149423336421952      1.8318008459856594      19.713565885187485
    13   3      1.9248034774131288      5.5251361883224845      21.646138847980975
    14   3      3.6516252141964567      4.1892949078061674      19.402377221442119
    15   3     0.63123778215493132      5.5590029354874435      21.042518462921961
    16   3      6.4654941756584625      3.8103871545445394      20.559330925220987
    17   3      2.6750750900448801      3.5676468891025204      20.338911783706855
    18   3     0.46949085563981929      0.5683521440600201      20.434389510084884
    19   3      8.6484540168818249      6.1342807433957445       21.41187598116408
    20   3     0.91365299460041627      5.4644461726229645      19.568618198460591
    21   3       1.388061013827355      3.1243674850525038      19.806906435925598
    22   3      8.4649699419220568      5.9395660922830595      20.139201460882838
    23   3      2.7441781838290513       4.287586975603273      21.631820990661335
    24   3      6.3728572808048645      4.2848917303907204      21.813251652595646
    25   3      6.2906491771417627      2.7101099377305311      19.737585058452161
    26   3        3.66790944256566      7.5871442368197783      23.322748053023819
    27   3      9.8971493615864912      6.4832904837886529      25.972801554655916
    28   3      5.7251490795154734       9.220028273985001       24.47530874409717
    29   3      8.9837424655303906      1.8848815289346059      24.837680816563385
    30   3      3.1677325591816108      7.8141176555499445      24.604001763738061
    31   3      9.7789208423791827      7.2602414686520298      24.960313779773433
    32   3      9.7236170024115971      8.1708941653456932      23.881622204101987
    33   3      3.5052486556953677      3.9891021157895534      22.904811384387674
    34   3      2.8570559221897458      8.7746318608838685      25.689581912446862
    35   3      2.8736018117216151      7.4224463579109612      25.934037728106439
    36   3      8.5626492780900243      2.9548299534700648      25.717439110626714
    37   3      8.2476580868083378      9.7019640164955074      26.117227777797023
    38   3      9.8732797946237802      2.6925190057974495      27.920817071334305
    39   3      8.7029282103660019      3.1019074193222829      27.169257437069795
    40   3      1.7312213352359596      6.8043239713278938      28.549762938711698
    41   3     0.54301799902362613      6.8468662562241995      28.903336754371956
    42   3      7.1739473693343836       8.901730401346736       30.91691526614936
    43   3     0.75714632784573865      1.3061240996659471      32.563084858019494
    44   3      4.9416614454303129      7.0208362631198682      36.354586695396108
    45   3      4.3598704972121709      9.1763749729111606      35.840633861290371
    46   3       5.431507156819956      8.2938293404267753      36.433753725939297
    47   3      5.0660018338963866      2.0028759616374194      36.829351347795566
    48   3      9.2519177023547936        9.85033388650813      33.084460343881453
    49   3      1.3102120393684649      7.0347342153560017      34.404193939457095
    50   3      3.6917245104465608      3.3570606307128426      34.631963429039246
    51   3      4.4581729377815158       5.947705487060543      35.992479589152055
    52   3      3.0931398922112106      8.7619356908301036      35.591895178039067
    53   3      3.9400967987297486     0.58674416214576675      34.294225787125974
    54   3      2.6576062493016854      2.6994257801663588      33.974579146797147
    55   3      2.0213226716960153      8.0455609704827289      35.059699850880733
    56   3      2.0901010413100463       9.401678863087481      34.813863996801359
    57   3      1.9333336549419908      5.6914786402666619      34.370674664036315
    58   3      8.1962116196901746      9.8429299444502938      34.038865099066015
    59   3      2.8113518423910961      1.2269933883161295       33.67198194431792
    60   3      7.3439533934404277      8.7447468387041791      34.079482297746367
    61   3      1.3860678882482862       3.368300650685065      33.713562614388948
    62   3      1.0618014079647993      4.7194173789347289      33.895578016907962
    63   3      1.8236471026031185     0.51718451466056159      32.962140910459844
    64   3     0.53463765583984468      2.6461723205345851      32.889541491447218
    65   3     0.13272735997836094      6.9629055021640252      33.579667738055512
    66   3     0.30509905794030701      16.998081542022305      11.995853592704661
    67   3      3.2794572725972371      17.856874969975259      13.831447953098381
    68   3    0.071858452646486742      17.574084068183183      14.812490941963501
    69   3      6.3828533942538357      19.484611408620612      17.624041231325208
    70   3      5.8547087825249369      10.796958671037384      19.174280548824832
    71   3      9.1832839847370593      14.440695964212264      22.299683010075345
    72   3      7.5693984409237913      12.934166765446026      20.778344318855765
    73   3      8.2099261778325001      13.621216302379702      21.877380270471321
    74   3      6.9378324154904742      11.924948494640343      21.586000683302878
    75   3      9.4250158445292911      14.529567474643736      23.696939474307513
    76   3      8.8052453816886693      13.641214285484722      24.622806558282498
    77   3      5.9810918217557703      10.311130837651801      25.176283190345817
    78   3      1.8512585656263647      17.245306319042175       24.86825667390443
    79   3      8.2622629546272535      11.225742517929438       24.61930981200107
    80   3      8.0508833192523621      12.457579688572128       23.99552251470854
    81   3      1.9340309417601964       18.52186122216197      24.208292891617653
    82   3      3.0250598373926851      16.642672521446258      25.320557862322278
    83   3      2.9747852277893747      10.014036815379338      25.988573485832944
    84   3     0.65186026089471949      16.527385991934054      24.943282765265263
    85   3     0.76780367591723364      18.810095937601396      23.446420458341283
    86   3      7.6376077510695772      12.543991207151635      22.671415001455703
    87   3      8.7319973982921795      13.898806545082895      26.027213002826215
    88   3      7.4194821382620102      10.592419668079456      25.466938931635287
    89   3     0.60676235738453954      15.372777920150604      25.804283933239009
    90   3      3.0002094734361666      15.494486896499646      26.087514115485241
    91   3       1.668155787744068      13.759788772936876      27.372841069845801
    92   3      2.4207648129195771      12.582104639009879      27.080369031701803
    93   3     0.57192542926183709      13.906609364924645      28.444739420670398
    94   3      3.7639951806627674      12.750765718269639      26.730413266117289
    95   3      1.6855973218082787      17.004640508118381      28.342204311257191
    96   3      7.9001200791593007      16.869018251126601      27.317198775325704
    97   3      3.9424338383373976      16.196287417587474      28.299428123541965
    98   3      2.9053069459263288      17.373381383238005      28.052732959640601
    99   3      7.0320209200887582      17.521892956211303        27.9626339393654
   100   3      7.0595727897625862      14.722736187753828       28.47670199599542
   101   3      6.9066083028019518      12.397385538797279      28.983674674771535
   102   3      9.7332315912359366      13.509959134383136      26.996402583492014
   103   3      7.7588558260382143      13.447013312573004      28.727346324229167
   104   3      9.1339891479210742      13.332644558610358      28.347705441576451
   105   3      4.4862402128586885      13.884105295344193      27.234173705334779
   106   3      3.9578996876134163      15.255943523767321      27.134709437330113
   107   3      0.6277828646889877      16.641073936955081      29.020532090861874
   108   3      1.7846620553007799      14.775788982842561      26.375675561038491
   109   3       4.653955870650047      16.233370873875629      29.443876350919396
   110   3      9.9897561188914921      12.922735865209809       29.56613953781703
   111   3      2.9361016600158041      13.049591291429232      31.475476707959704
   112   3      1.3352475559582542      13.988313096382099      29.908497811903608
   113   3      3.4649294805250714      11.892390752863003      32.079393552607911
   114   3      8.3473721309079441      15.757421062753023      32.584784891899062
   115   3     0.67371488560308679      11.923163172716418      31.163873602987845
   116   3     0.96819285268475153      16.260609460719216      30.355456374248277
   117   3      9.4098519887195007        11.1478434509993      32.481767178368344
   118   3       3.910086568832829      16.626009306098062       30.67494721123029
   119   3      3.6767771242447855      14.302471342091927      31.712559701948109
   120   3      3.0579747974275771      10.618208378053783      31.790148481607428
   121   3      4.7868196875481415       14.24087139389365      32.663958519983275
   122   3      3.1652621457531493      15.403784339934276      31.029529054929686
   123   3      9.2786405778525189      14.507751463328484      32.486753361179481
   124   3      0.7158222323389829      11.003044875699288      32.203539003365258
   125   3      1.8860586992126294      15.208619222246957      30.311542406693995
   126   3       1.680999859897917      12.925293701770952      30.855181147337881
   127   3      3.2814545176422953       17.96116745024856       30.84790628282774
   128   3      1.9716949260949133        10.5479166279616      32.711533331110864
   129   3      2.7980802984906257      18.311020316514163      32.092203713493831
   130   3      7.3787078113820215      11.335490940382556      29.939102698170572
   131   3      1.6107422097121027       19.11061899999169      32.499673471173438
   132   3     0.29778096309139812      18.510964820722112      32.673242599080339
   133   3      6.9585610176979529      10.091667241067505      30.306195272873399
   134   3      5.7335769090571933      15.366160173801786      32.619104492903205
   135   3        8.70462942228977      13.450148598341398      33.328591742871822
   136   3      5.8943334751243217       11.06683958164645       35.70629271280373
   137   3      9.4172985953735573       14.30937298597588      36.605275821679939
   138   3      8.8458195601306642      12.081796771785104       33.44274566935114
   139   3      4.1534927533146471      11.934625567593196      33.279100909558522
   140   3      4.7484080549417875      10.412891520888612      35.221621165308107
   141   3      9.2242625001116636      16.227032788383195       34.94091720635231
   142   3      7.0391333674978451      15.067555897353975      33.040311142067083
   143   3      2.4919272581417977      10.450127804633309       34.03747083275892
   144   3      3.8003899146008591      11.073103827771751      34.285970096480902
   145   3      6.7833451697198388      11.804569693229148      34.854655917251151
   146   3      7.9538565331984357       11.24129689833309      34.304255742021503
   147   3      5.0175889819645105      13.116085543997386      33.506223357489134
   148   3      6.3127688248902372      13.030852913833115      34.158782170837526
   149   3      9.1471262788113048      16.564885354975846      33.621680958099532
   150   3      7.3556668915681378      13.923914504388151       33.76281908876453
   151   3       3.780346146030491      17.888002838157515      33.009495791264577
   152   3      9.8246285399417665      13.072131759939731      36.917659646315322
   153   3      19.821654017775575      1.6738230254387843      18.560849090431141
   154   3      15.018324583745757      1.0531788394055581       18.66477876190358
   155   3      14.813998099282733      2.1804469643982616       17.78819531885112
   156   3      19.337276885425219       3.273652209206888      15.404404718270627
   157   3      19.486964339207137       2.658590583206855      17.711739435382675
   158   3      17.549216025855067      1.7971580305326829      16.357470052420165
   159   3      17.492238242170078     0.54267379926723847      17.004231404434982
   160   3      18.750421438975888      2.5722936652666255      16.369480460756492
   161   3      11.675678641380951      7.9141629155174753      17.507443673933281
   162   3      10.945327988005092      6.7319295362563603      17.663435397215359
   163   3      12.977833400350489      4.0208807825008197      18.331265602734263
   164   3      14.187768066560039      3.2725340447615769       18.44299663021021
   165   3      19.309531683942204     0.35657588333324025      18.439563592930934
   166   3      10.294015250258578      5.8386435818557461      18.624861061423299
   167   3      13.720150266996022      9.4459009973660475      19.040227362058566
   168   3      11.186935544350638      5.3211443124964575      19.735330241459899
   169   3      15.133780066022096      1.1833490564526594      20.088047997742223
   170   3      13.934286811683467      7.9930225969688076      21.206335958045759
   171   3      10.986097120942759      5.7787105207797476      21.115280804777029
   172   3      13.175447160274638      2.3554645201064734      21.022100680999031
   173   3      14.878585542833695      3.5923641972732185      19.625287769171702
   174   3      14.678723183681523       2.481804209318399      20.750674672308946
   175   3      12.697151070633996      8.1150073305882522      21.851796318515468
   176   3      12.346546192312736      3.3560734864944397      20.623848338637835
   177   3      10.001028150628704       6.575055226612518      21.808237523751799
   178   3      18.209861096744323      4.5897701240601938      21.218989169658531
   179   3      19.385218857868701      5.4356932763257149      21.583625330828401
   180   3      12.253082643050739      4.2834559260855833      19.473746593902408
   181   3      14.285150915943623       8.622168229455653      20.070147605132998
   182   3      16.902946345690744      2.6366041758260335      22.062605160040878
   183   3      17.118116177964222      1.2868898261263919      22.148626159795551
   184   3      17.895731812011118      3.6715067171829441      22.246579743956168
   185   3      15.503500975625533      2.9982260334957238      21.911796319824202
   186   3      11.445284526765594      8.3940613301142424        22.0784707548023
   187   3      13.765535478504455      9.1014667042860058      25.100410301528004
   188   3       10.34012006286569      7.7972388626971822      22.607989092134442
   189   3      13.674039420761135      8.0924118904072362      24.394447330403509
   190   3      10.642913443002371      3.6329121729964235      28.725837508454052
   191   3       10.63329114161238     0.50616018313916245      27.235222939223402
   192   3      12.871531862992748      0.1823564523223169       29.51094706915233
   193   3      10.844878597654802       4.946427523990387      28.333195856566576
   194   3      10.254168885427324      1.3386297543476176      28.245120546892384
   195   3      10.924857467335842      5.8529349497259444      29.519502385272606
   196   3      10.829900792599826      7.2568055604509363      29.736898785713258
   197   3      10.834662928364999      7.4649962091715816      32.134944689339825
   198   3      10.605729693653334      7.8834475497703149         30.867807030422
   199   3      11.327708092790479      5.2208373689603382      30.852811839114317
   200   3      11.355274908306905      3.0160221820400057      29.927086727572977
   201   3      18.915551179092947      7.8390902519177184      31.833722770816951
   202   3      18.493455155236266      1.7868161083775125      32.549782801064516
   203   3      11.959894632892485       3.904922584616719      30.745097420328506
   204   3      11.059864723939798      5.9811768602220763      32.065557467615761
   205   3      19.514378216416407     0.73282751782793643      32.112713657985104
   206   3      18.237758586009264      7.0123292078758626      31.212641458498737
   207   3      18.926488112378124      4.5185229082714908      32.677320251648027
   208   3      17.384326934552256       2.353144822899607      36.065835974480436
   209   3      12.060661800702857      9.7247652543555336      34.065745043541874
   210   3       13.54700444866037      0.5135286750757686      32.988661271806336
   211   3      13.124745886081115      1.0552098132866377      34.222862485665615
   212   3      13.929367532825747      2.1305557882133073      34.646072089339086
   213   3      14.770538585914467      2.3630415284359021       35.64059249055768
   214   3      16.137788996159617      2.4913138215494102      35.844077633086343
   215   3      16.052203028220028      1.2125160642101169      33.339685231062958
   216   3      15.008500822385313     0.36166319735642105      32.917669658523124
   217   3      13.242943412385968      9.6432799543823506      33.308946696540872
   218   3      19.899695367586975      5.4179567050415534      33.313502479470799
   219   3      11.419913480190857      5.6110194888210563      33.319976162103266
   220   3      17.453445255320119     0.95976405937079845       33.11061119962207
   221   3      19.582379241326219      8.2400559201284835      32.990960646160559
   222   3      19.171265451246182       3.087027154224995      32.784152613091763
   223   3      17.526231252051439      16.147472121778598        13.1214663123062
   224   3      19.327511199391893      17.582607646178371      16.021486715252905
   225   3      19.182013808309783       16.39128489527976      17.918401187878089
   226   3       18.41632064531079      15.157777619745762      16.092211477364124
   227   3      19.320002897946832      18.530782355024101      17.084241509188196
   228   3      18.666910808996391      14.022856518201214      16.865357027746796
   229   3      18.989245064939141       16.31372561683499      16.557279270937478
   230   3      13.971673366026637      10.772020088623586      19.064779919227181
   231   3      18.663801465436805      19.831534269185145      17.304619548206915
   232   3      18.545576552413358      14.106062304219728      18.258199258163259
   233   3      19.394192819232231      17.689896538753619      18.362138404054228
   234   3      18.805495990255434       15.38933902599682      18.859802063215206
   235   3      11.854185596747813      15.147198366577276      22.275975867799342
   236   3      14.340078290496134      13.477124661287547      21.726270697802097
   237   3      17.814265206694913      17.685876527904298      21.745018494544404
   238   3      17.833663376450676      14.851675026586095      20.969070291511645
   239   3      16.881729451425187      19.998383797561402      21.899669193724804
   240   3      15.384386092662234      11.081021519409811       21.01684925450882
   241   3      14.153248965601202      13.037116791460486      20.388019129743643
   242   3      18.558390659961375      17.286653914767388      20.549136708460718
   243   3      19.666760151266562       19.65452225566592      19.655467176279913
   244   3      14.511333722975888      11.623836398589782      20.069319108541286
   245   3      18.556848066920058      15.850532467012695       20.21138607726493
   246   3      15.086736064093989      14.529488449637107      22.272215587505087
   247   3      15.281574659989873      15.987308248404608      19.651960569589136
   248   3      19.239758906236936      18.247825937650223      19.649558565593608
   249   3      10.647527484635646      14.963393294192144      19.500829366921955
   250   3      16.991425641556539      16.767549941738473      22.473398091345111
   251   3      17.781364152122968      18.928893943372891      22.319857565077381
   252   3      13.634746427930402      13.941107475692061      19.384731277817625
   253   3      14.438233856392557      15.031771980821862      19.417959171360128
   254   3      11.945136574914656       12.14651268448006      23.106798714321652
   255   3      18.305539074083445      19.196822382554807      23.710036730360194
   256   3      11.046143926979488      10.816677303280237      25.122890750284704
   257   3      11.622503577124499      11.436893092094971      24.061356509124238
   258   3      12.561054501855844      15.786035574514003      24.606637714378206
   259   3      19.394936227637537      17.050845135693901      24.455253109063275
   260   3      19.474645943349451      18.287799725979326       23.80830343736816
   261   3      18.149461193172613      16.408976948443154      24.670308206953244
   262   3      15.773486548627202      15.803475352688183       24.36524968800402
   263   3      13.691034290777289      14.744950540414992       24.46759443023684
   264   3      11.987057355521877      16.034707931246654      23.366895507368245
   265   3      14.782550815002047      15.192338935097851       23.52561896841879
   266   3      16.966961652594126      16.438572281976011      23.831747304245294
   267   3      13.934234492851303      10.204670483311327      25.874195617091097
   268   3       11.47884615590957      16.005240741756115       25.74755051333015
   269   3      15.504572942972942       15.37204648545142      25.730975864312118
   270   3      14.405422606903112      14.549614046221357      25.763184308020513
   271   3      18.188304761906561      15.590807756297318      25.871513155977922
   272   3      10.056147824856144      19.620568878724022       26.21583009659706
   273   3      19.561735528096094      12.767552440834589      28.605702375561439
   274   3      12.369494804680608      19.122088790172988      28.536280639459807
   275   3      16.839769010990373      14.034239497826251      28.146931953747838
   276   3      19.429377372331388      15.260350602281685      26.560184020721923
   277   3       12.76928034735402      13.145861305388218      26.638065875228154
   278   3      11.899363892459435      16.811686510227723      27.945346477939466
   279   3      14.120418644141894       13.50886377882337      26.743178854777554
   280   3      11.637823815407952      19.487718913613172      27.425662970388505
   281   3      19.637455265494079      14.906123703217853      27.909207404426592
   282   3      11.438289923859271      17.231158573983631      26.647927416764084
   283   3      12.639006408752929      17.689799264712612      28.759919863050314
   284   3      11.755055550748226      15.483094962241568       28.44968775453156
   285   3      19.285397849559725      16.019082883422012      28.820560189580643
   286   3      10.943453370639283      18.586669744887661      26.618553767076985
   287   3         12.286609497038      15.049939618142094      29.677271796041165
   288   3      14.549389786401095      12.726775236570019      29.774511535652593
   289   3      18.734399385842739      15.662011393351509      30.106612468149521
   290   3      17.873325638225054      11.801448197907341      31.176660555406411
   291   3      15.385921689970523      12.411969995278319       32.44415042557155
   292   3      15.456564222435054      15.948653830554447      31.516268802126838
   293   3        14.6013453746545      15.211176020805397      30.664570903653456
   294   3      13.846049484988638      18.247157683992448      30.850675258278315
   295   3      15.507860224357577      19.020786481040673      32.621741235376312
   296   3      12.386069160709516      12.052794445646173      30.669104824493438
   297   3      19.669628183223693      15.981973377676864      31.097394366962444
   298   3      13.172377413131422      19.518304410752393      30.803771604385958
   299   3      10.657092585353388      14.558537850196894      32.219474728982298
   300   3      13.796125301948026      11.881881579080769      30.746137460822421
   301   3      15.090557627387703      13.846930979129093      30.556617645015976
   302   3      16.006284027628631       13.25597344729756       31.50826934315176
   303   3      13.428329470506151      15.760640871752262      30.173170031629002
   304   3      14.521231921746471      11.461496118149947         31.872390652722
   305   3      14.766206093826264      18.048174432766952      32.006265285080303
   306   3      11.252545567601748      19.446105839346654      32.288723165306472
   307   3      13.397917069915835      17.248884988228454      29.923277914374918
   308   3      17.371224915435896       13.05585421716982      31.217145589782096
   309   3       12.62725124216634       19.89379118876062      32.079519533671494
   310   3      14.819464797918462      16.760441073846657      32.479970274669206
   311   3      10.850142401230309      18.168599443934617      32.600971694497211
   312   3      11.030987257541627      12.497541963605734      36.292488029441792
   313   3      11.206306980612041      11.115643784625677      35.964227566071379
   314   3      14.646898673784099      16.344933756073825      33.823139775306871
   315   3      10.069713475514455      15.200132015203332      35.559990444683066
   316   3      15.760515807011402      12.516506448603035      33.800976411121532
   317   3      12.200474443436029       15.44187327399378      34.118815972166871
   318   3      16.792007434818778      18.634271682677451       33.37485622054573
   319   3      14.154012120002797      14.062682213300103      34.632140238014607
   320   3      11.414814887182356      14.757621182429128       35.25217667846313
   321   3      12.213408394691696      10.800662679650495      35.092659443783809
   322   3       13.20058891841313      13.037592630630039      35.188975732937081
   323   3      13.436194066771598      11.657061978530477      35.072723936479548
   324   3      11.970020948039457      13.482691991197084      35.762086916137548
   325   3      15.548520304595383      13.666448377227422       34.51716166233512
   326   3      15.911568121163358       16.52215129339621      34.545632693232989
   327   3      13.665770087011053      15.317324071748033      34.221294986889944
   328   3      16.584175965605628      17.616170596585487      34.265969702742517
   329   3      10.545297238670654      16.980129010047516      33.059636332995431
   330   3      11.285478837466403      15.678770876659396      32.995380405572099
   331   3      17.867083940682672      19.521776417116669       33.23925475113694
   332   3      19.222398508280641      19.432512657298542      32.833903554757185
   333   3      14.271932882257852      10.276873725041451      32.777782110267943
   334   3      15.526978727067537      17.130572756660666      68.069419059865254
   335   5      3.8202589932874931      7.1090026939755386      10.553414396944426
   336   5      9.9086281622116399      6.4471957585660444      11.931142194987777
   337   5      8.3119650558011688      4.4891702552800119      11.998474975688538
   338   5      8.7365966164859508      8.6143539603269055      13.110384745631244
   339   5      9.2049157278334892     0.94079468669441446      13.217753480390552
   340   5      4.0258996346592202      7.2335645939562498      13.157499614513995
   341   5      7.7872686263086655      9.6069580159951293      17.630636899958475
   342   5      9.3523355859436847     0.56492557458074533      17.795572547390599
   343   5      7.0804399282278974      1.6242012021010546      14.897384949105918
   344   5      4.0910501232449379      7.3330088816952763      16.652500954759553
   345   5      4.5983295415402736      2.4090354859765895      14.637850372550105
   346   5     0.64128432638695154      7.9715897764032784      17.327239889963067
   347   5      6.7589064972125534      8.3932505863554354      14.723746149714394
   348   5      5.7951231184812588      8.1227141128115719      18.265868502298012
   349   5      5.1966650349432655      1.6918182319073549        22.3538456728249
   350   5      3.2384494341728498     0.65776684579785893      25.355981826948856
   351   5      6.2472752521520256      9.3533811752022142      27.892847492073368
   352   5      6.1223079001826575      6.9824868466071122      29.374211131633238
   353   5      2.5198460048914413     0.28543898060465339      28.148664634442607
   354   5      3.7586362500979424      5.1713791851956961      27.134892724829118
   355   5      5.9555497897257244      2.3723914658217899      28.268096900424997
   356   5      6.7324386072131448      7.3307204085567248      26.413315758721158
   357   5      7.3305915990601722    0.089613351116729967      28.904405400236346
   358   5      7.3486183276137407      4.3998445280340732      29.080751654374385
   359   5      4.6264483413762711      9.5492958104639136      29.859823455301335