LAMMPS data file via write_data, version 2 Aug 2023, timestep = 284, units = metal

297 atoms
5 atom types

0 15 xlo xhi
0 15 ylo yhi
0 200 zlo zhi
0 0 0 xy xz yz

Masses

1 28.0855
2 15.999
3 12.011
4 1.00784
5 18.998

Atoms # atomic

74 2 1.225264683642452 0.9180509987549086 2.1484011853500253 -5 2 0
49 1 1.9498786735069242 2.117902644016445 1.2818470367190546 -5 3 0
207 2 3.3966867893121955 1.4875344380744937 0.8621782899153098 -5 3 0
158 2 2.1547761870511035 3.3372798628550737 2.393764894200715 -5 2 0
76 2 1.0164755449655236 2.777917684797858 0.1486594152472485 -5 2 0
133 2 5.800763447430411 2.752397520726698 0.4441070550514301 -5 3 0
208 1 7.31178296562262 2.988808840458071 0.8766220229494365 -5 3 0
81 2 7.892119271366934 3.0132647201746416 2.5242580618239914 -5 2 0
164 1 9.420874367972132 3.087327521580887 3.1244168474525327 -5 2 0
91 2 10.333916806662954 3.4601770490546206 1.8392923309683322 -5 2 0
162 1 10.459822719068745 0.1374580751135936 3.31236828023035 -5 2 0
188 2 8.151502202818682 1.8407276419067071 0.15606521798774842 -5 2 0
201 2 12.937322040043874 3.146346400200842 2.475105626021295 -5 2 0
23 1 11.856242174903608 3.6462171332705613 1.3596246859588554 -5 2 0
137 2 12.217945391479812 2.842506708951971 0.041023320999545865 -5 3 0
170 2 14.940922712028947 4.666333481720942 3.3252915266681136 -5 2 0
176 1 1.3140463242250742 4.735077860643375 2.405813468426209 -4 2 0
96 2 1.0202810367096569 5.015103534807382 0.7853387974978476 -4 2 0
100 2 2.2459125547980454 5.910898482808487 3.027944119196613 -4 2 0
28 2 4.874652301242782 6.616831006027612 2.8048472423115314 -5 2 0
90 2 9.393783268686752 6.305290746725203 0.8041614285177846 -5 2 0
189 2 7.5114938074604805 4.521361162558361 0.35677035283394937 -5 2 0
127 1 11.219403721120198 6.502951401113888 0.5413315435910165 -6 3 0
161 2 12.002780909420913 5.21647576352927 1.0071066185577813 -5 2 0
79 1 0.506862034637804 9.622346850620142 2.058414495768084 -5 2 0
78 2 1.8799260800735271 9.476821084616866 2.9512891727890262 -5 2 0
117 2 0.6008084498694131 9.064552240650265 0.5415151485921955 -4 2 0
7 1 5.427361174647012 7.894414577050052 1.9136329612366947 -5 2 0
159 2 5.527924903184522 9.14024639147134 2.9820039350130627 -5 2 0
160 1 5.814348251459035 10.700298517514318 2.8086359815312774 -5 2 0
3 2 4.5913459302266215 8.19393090444968 0.6126687133617763 -5 2 0
125 2 4.125248260816527 10.6654280057951 0.1061256828187872 -5 2 0
94 2 7.016134825857232 7.663700382194686 1.4866037070218676 -4 2 0
34 2 6.9614875469663815 10.939020888464194 1.5881963322574233 -5 1 0
171 1 8.24848296651249 7.626836452480334 0.5247978223329652 -5 2 0
112 2 9.251178869831353 8.843939872198687 0.5899184382105455 -5 2 0
240 2 10.448044312952971 9.592945361578128 2.8198208406240814 -5 1 0
107 1 10.72444535920102 9.14663726649033 1.2992319078044592 -5 2 0
225 2 14.295964354719425 9.123041788608132 3.1104673491855452 -5 2 0
5 2 11.634712841722777 7.756221046026042 1.4457939188470212 -5 2 0
244 2 11.57040427398951 10.19750872650046 0.4437368904465086 -5 2 0
218 2 0.3383137069568415 11.27791317924578 1.8708755134109256 -4 2 0
202 2 4.518485977366728 11.643184936827094 2.559805396104863 -4 2 0
250 2 4.586248858256096 14.16080260261602 3.5724677080456764 -5 2 0
122 1 4.751454965958302 13.260813197559933 2.241006175181283 -4 2 0
155 2 3.932565819516531 13.320744144950417 0.8843118263441868 -5 1 0
183 2 6.3500593871033795 13.61296905256182 1.8432973183909418 -5 2 0
206 1 6.970834856081592 12.422910570675091 0.8404139942980827 -5 2 0
237 2 9.950385862996333 14.929030159943588 1.7673130184164265 -5 1 0
82 1 9.820454152795165 13.807853638517404 0.5563306098004224 -5 1 0
157 2 8.586086331812982 12.73487870369079 0.4781038556258422 -5 1 0
163 2 12.06680959598782 14.86332840402478 3.363424463305352 -5 1 0
54 2 11.272777731363082 12.975577601531036 0.7087305118058495 -5 2 0
148 1 14.764462522296903 12.542753541565787 0.9343716445355211 -5 2 0
111 2 13.948070667212825 13.593782115827947 1.852589427378536 -5 2 0
145 1 13.483498560401387 14.07215680145233 3.387727021297789 -5 2 0
281 1 1.0696332804117592 0.672167017620804 3.746467310649173 -4 3 0
101 2 1.3122611419732002 1.9821754178790232 4.695224644979272 -4 2 0
92 1 0.27829327721329106 2.618596371280993 5.77557055647786 -4 2 0
270 2 4.591816976106794 3.019395456018112 6.3101494552139235 -4 3 0
247 1 5.028152989338053 1.504339395447389 6.739641771279414 -5 2 0
210 2 4.203398617123158 0.447705485083701 5.827639285416203 -4 3 0
228 2 6.640323758282088 1.354862755207488 6.5201194364690105 -5 2 0
223 2 9.98604464059033 1.6455883171657637 3.737242410119373 -5 3 0
195 2 9.022554634100578 0.2644038649145322 6.326549128149515 -5 3 0
150 2 10.945100443842891 3.897540970324544 6.583038016946174 -5 2 0
242 2 14.57027784438359 0.10678554612155698 3.984892186887549 -5 2 0
267 1 13.583311673739972 3.8780040763122527 3.7703132386203686 -5 2 0
97 2 13.87223691656664 2.8382357460939787 4.992455996987004 -5 2 0
220 1 3.587548971806693 6.396562769104441 3.8065398428860515 -4 2 0
178 2 0.8027358433626804 4.085441010199639 6.290726618289052 -4 2 0
243 1 4.255313918796855 4.608545600602152 6.403370208974158 -4 2 0
154 2 3.957937840388675 5.260055323572303 4.938042662131927 -5 2 0
84 2 5.56870825286164 5.4104311991710725 7.0211782128731635 -5 2 0
246 2 6.8282637333307585 7.565215180140482 6.123672110293441 -4 2 0
248 2 9.755156764868392 4.266050051507544 4.281758280386128 -5 2 0
64 1 11.005285352556644 4.806492763158713 5.227406364035506 -5 3 0
153 2 12.385070762136833 4.809360856288821 4.360131655305592 -6 2 0
260 1 12.434790006418632 7.111822820963567 6.530446098895089 -5 2 0
254 2 11.135088066090615 6.3311410439001286 5.861579172009137 -5 2 0
21 1 2.192053919662802 9.059587200842575 4.50083724734012 -4 2 0
192 2 3.2519789917897803 7.834348807838033 4.499495624171621 -5 2 0
165 2 0.7987875282044452 8.597979346572806 5.235707519249262 -4 2 0
226 2 2.7587849036425776 10.349692716705414 5.346081471645663 -4 2 0
214 2 6.340834020147509 11.339138389951346 4.195769036559307 -5 2 0
104 2 8.575990441534598 8.638427885677775 4.514315281609928 -5 2 0
172 1 9.74521152000288 9.771868176116575 4.224796314058213 -5 2 0
73 1 7.954869085573807 8.717926262717901 6.039416134266711 -5 2 0
285 2 7.434421278108031 10.2718665614529 6.293103443642282 -5 3 0
168 1 10.607312208978259 9.243272658766024 6.988690977569664 -5 1 0
141 2 10.841105776603115 9.672546097270335 5.423689698204515 -6 2 0
179 2 8.988369649733647 11.219827816668996 4.316748419018701 -5 2 0
203 1 7.600800681859063 11.46020930899293 5.1639086764206255 -4 2 0
265 1 14.280886148026832 8.977170752148144 4.756547955569594 -5 2 0
30 2 13.327466021792082 7.774485440764335 5.3316158481344 -5 2 0
219 2 13.825908037379664 10.394720000496687 5.471073594268408 -5 2 0
292 2 2.130307368022208 14.582076820464223 4.268597809379147 -4 2 0
222 1 2.326926036128993 11.760167917184344 6.052212406242289 -4 2 0
278 2 0.7887917662563797 12.18362792910619 5.660150842545769 -4 2 0
119 2 3.4351073246766797 12.879332167832306 5.643408578403843 -4 2 0
2 1 3.6034280168024124 14.288780262091255 4.8573069733694805 -5 1 0
275 2 9.778226444441039 13.989437109021365 4.260434892068594 -5 2 0
174 2 7.690094323433393 12.99214021033232 5.713007489493942 -5 1 0
213 1 9.140692216258065 13.769592725322639 5.737068553986167 -5 2 0
216 2 10.057572846613581 12.849772438698873 6.725109427581648 -5 2 0
221 2 13.475584141011607 12.752680046981297 4.34482811136042 -5 2 0
217 1 14.160106553494906 11.988392811581567 5.6205738284289195 -5 2 0
245 2 0.12685079550152037 1.6215696534440212 7.057564990062247 -4 2 0
290 1 0.31849912227108934 1.9115242182068364 8.66625172876572 -4 3 0
166 2 1.1723716938802355 3.3042533695341345 8.78924474280363 -4 2 0
272 2 1.1381934303786905 0.7310686717914273 9.38551834853505 -5 3 0
253 2 4.759804715187329 1.1486943088304544 8.308173791068565 -5 2 0
230 2 5.008906476183872 3.2307786308138855 9.834609779317496 -5 2 0
56 1 4.950614115147654 1.5982699970508396 9.867424028816645 -5 3 0
173 2 6.421080051668538 1.261829093455423 10.554862083281739 -5 3 0
42 1 8.070391762249876 1.1693626283187668 7.257151887670813 -5 2 0
236 2 8.764382015520965 2.6202574469252378 7.451626499849636 -5 2 0
182 1 10.170149146535836 3.320478771289122 7.874691774657987 -5 2 0
9 2 8.01649873200086 0.38859681437700133 8.685561525215768 -5 2 0
212 1 7.737839281025883 0.35165814465532075 10.277714832878885 -5 3 0
136 2 11.216615405073336 2.233310635425704 8.497982782970922 -5 3 0
234 2 13.78751100278416 2.087010999836195 9.283551771019994 -5 2 0
238 1 12.397550070517504 1.2571153509596336 9.066444348585899 -5 2 0
8 2 11.763362240577086 0.7060527991485178 10.472780236393028 -5 2 0
17 1 1.4519809585646164 4.5121935290321575 7.731296010008106 -4 2 0
268 2 3.0250477874979964 4.818115890181847 7.465572180378769 -4 2 0
13 2 0.7570164939676074 5.817947093346873 8.410193095605926 -4 2 0
262 2 3.387802062244546 7.576094720635066 9.644622852508958 -4 2 0
190 1 5.691540649368289 7.0261638110771 7.135993315643184 -5 2 0
227 2 5.906850041733209 7.704624353816206 8.653423187764014 -5 2 0
16 2 7.2287738576580365 4.7019814611672786 10.171680403805416 -4 2 0
53 2 8.787536968521703 6.849745678882817 9.892975063603439 -5 2 0
252 1 8.78375656101315 5.221902712172064 10.091351437938126 -5 2 0
251 2 9.692706396117599 4.47833745923681 8.952014776016426 -5 2 0
232 2 13.314824496887729 6.261252971866676 7.638472463851613 -5 2 0
43 1 14.309548712384213 6.3447940102998945 8.944233932795534 -5 2 0
95 2 13.685088041328855 5.467406715284816 10.199666476464975 -5 2 0
271 2 1.4873042004083799 9.58428186147495 8.858541418404792 -5 2 0
26 1 0.4065168915605673 9.158451712863274 10.000507056708367 -5 2 0
277 1 2.702894194805885 10.692843562215245 8.909634257020546 -5 2 0
57 2 2.770838974072067 11.382462437398631 10.373681002416786 -5 2 0
180 2 4.185910534538344 7.740590917974697 7.012947991000259 -5 2 0
46 1 4.345050228519342 8.323160763209188 8.554121713721146 -4 2 0
280 2 4.136396724633858 9.920342988955912 8.672141811107437 -5 2 0
191 2 9.152379732401789 8.492578711724633 7.127872489669314 -5 2 0
110 2 10.726497680240394 10.546162534560274 7.917706537968729 -5 2 0
264 2 8.810731135413155 9.50499100725402 10.17141197049355 -5 2 0
255 1 8.885519081459751 11.100570028458796 10.493471325639279 -5 2 0
261 2 11.795895278150612 8.274725801694077 7.478384739619067 -5 2 0
258 2 14.573114020007614 7.845210276682167 9.535651171627933 -5 2 0
105 2 14.316487284042292 10.353540977142808 10.19003556456005 -6 2 0
229 2 2.43417182999952 11.700557061670926 7.681048066833418 -5 1 0
239 2 2.4883020721969404 13.92790672635142 10.328522076004758 -4 1 0
286 1 10.27919606732506 12.080275387992492 8.135838862273033 -5 2 0
194 2 8.95963968256713 11.993140510941469 9.11572090754657 -5 2 0
282 2 12.785899452434286 14.953672389813338 8.148425561550587 -5 2 0
284 2 13.483866620048994 12.618365731211059 6.9786789641054865 -5 2 0
61 1 12.982854296913802 13.335443190817406 8.352106674457561 -5 2 0
259 2 14.02117225069136 12.965130781022278 9.55628741784045 -5 2 0
68 2 11.525349113200155 12.805423612925201 8.872006380212653 -5 2 0
144 2 1.7677444222389787 2.178483550582595 11.320425263983665 -4 3 0
294 1 2.1135567655279197 0.5594447726484912 10.748152798133736 -4 3 0
27 1 0.9638591463851911 2.9209107212770364 12.477452176764976 -5 2 0
67 2 0.474471037154218 1.8457248194726794 13.636771664056452 -4 2 0
65 1 0.3828046814514899 0.22433689764466874 13.36469379619509 -4 3 0
114 2 1.9598627210282147 3.9923943946694704 13.264775945305779 -4 2 0
209 2 3.7621062933545018 0.9652104602733579 10.730701755308948 -5 3 0
233 2 5.862307823894033 3.8357917488492665 12.332346977880226 -5 2 0
41 2 9.101003665492922 0.7334051770709608 11.106300795044048 -5 2 0
187 2 10.620487586168982 2.664539191933669 11.883400837782998 -5 2 0
11 1 10.623968192965028 1.0870798444842358 11.568220632295812 -5 2 0
113 2 11.124405897548488 0.3306812362926651 12.934714464869623 -5 2 0
19 2 14.578510450401184 3.567988823654283 11.871982303547341 -5 2 0
103 2 2.772215283690556 6.917900144712049 12.113697215221684 -5 2 0
288 1 3.999191801643425 6.970972791528349 11.019279659921759 -4 2 0
296 2 4.6642866627196025 5.538127614292361 10.764066754039458 -4 2 0
50 1 5.740288882256977 4.323935695491327 10.763109511578461 -5 3 0
36 1 5.832752021708689 4.737194011063967 13.694446109561264 -5 2 0
75 2 6.13107963222207 6.282633290894845 13.299120219571714 -5 2 0
235 1 6.307960526534888 7.766743834647948 12.67371960035849 -5 2 0
38 2 9.495338443825172 5.008114450813143 11.544903776649045 -5 2 0
12 2 9.894554265796952 4.19679114659779 13.951171583971306 -5 2 0
31 1 10.559483317843858 4.169031194888116 12.435541653950466 -5 2 0
231 1 13.649409514790522 4.893751262893768 11.740267135035445 -5 2 0
22 2 12.089045366504449 4.743902470299207 12.271668072309037 -5 2 0
287 2 14.386653876768948 5.868600993807219 12.821604804199813 -5 2 0
263 1 14.180272962081343 7.287741252261855 13.545580547838421 -5 2 0
291 2 1.2476187067760462 8.974036718490943 11.403050698005353 -4 2 0
20 2 0.6841106439743108 7.926744836884913 13.671641410610508 -4 2 0
55 1 1.9412845242921386 8.229044545262708 12.667637640582189 -5 2 0
15 2 3.0435442951501313 9.051661630377467 13.563077283306116 -4 1 0
293 2 5.196885558694157 7.986727870285261 11.494670961530465 -4 3 0
69 2 4.65711207920382 11.088279333363067 13.931964664020127 -4 2 0
48 1 4.43964125050326 9.53485295413206 14.25192708908593 -5 2 0
184 2 5.842705883599356 8.807625831473755 13.834623254914991 -5 2 0
142 2 7.8352785341842415 7.99596879437241 12.150345192609555 -5 2 0
135 1 8.968363686588226 8.08365158328854 10.944984311584609 -5 2 0
118 2 10.500483786594604 8.03402134653976 11.55264159876297 -5 2 0
279 2 7.553470051525087 11.422703442862966 11.401027901040361 -5 2 0
39 2 13.05211213482198 8.055976837023959 12.642547405604304 -5 2 0
151 1 11.466072224017482 8.425875790287698 12.804631684499407 -5 2 0
33 2 11.462548462456473 10.014016403419415 13.090832015482851 -5 2 0
224 2 0.5815070562810645 12.261076663206683 11.559293542937384 -4 2 0
25 1 2.1619026002109676 12.651231158028596 11.243739995062228 -5 2 0
86 2 1.3334328880297026 14.880073582158897 12.13125633136722 -4 1 0
257 2 2.920500855991586 12.67885885113306 12.722361735477495 -5 2 0
37 2 5.547356819329981 13.011611703907349 12.462149804992825 -5 2 0
256 1 7.087519209017658 12.885713840416244 11.975423793005882 -5 2 0
197 1 4.337565934377218 12.60581533968993 13.479465275563399 -5 2 0
40 2 10.24960483941087 11.48728789504279 11.300676184020588 -5 2 0
156 2 7.338533399301673 13.856001699597154 10.721750993360367 -5 1 0
44 2 8.057786676687368 13.295085254496014 13.23144834626658 -5 2 0
35 1 14.211576223091084 11.883545184100754 10.766009311754704 -6 2 0
66 1 11.464613197097707 11.46941070248481 12.369428659019643 -5 2 0
266 2 12.895733300153337 11.88253118205882 11.738751187447338 -5 2 0
72 2 13.81580241120863 14.766804868650347 13.09096482178917 -5 2 0
289 2 11.126666733409499 12.489051164919093 13.57568912805552 -5 2 0
128 2 3.1969834765214746 2.4280401874596866 15.07346072647968 -5 3 0
167 2 14.681767024255738 1.2031060616922662 16.432867564385614 -5 2 0
106 2 2.364619101363013 0.5969924894727957 16.71430224579333 -5 3 0
269 2 5.11359936521934 1.408403378854604 16.474634616116834 -4 2 0
51 1 3.4985971188257308 1.7630727014112684 16.50840823173501 -5 3 0
129 2 9.00979521450868 4.250900638292156 16.439741770077493 -5 3 0
131 1 13.586329573830657 2.2622330631190497 15.789423011965752 -5 3 0
99 2 12.855012809428194 1.777523078169893 14.421594996991393 -5 2 0
14 1 12.469802486478171 0.291261066734855 13.857849709993165 -5 2 0
47 2 14.325068438855663 3.721838319586275 15.634848820094534 -5 2 0
283 2 1.9199760079924664 4.512540400578753 15.879835189043998 -4 2 0
276 1 2.8583549364813328 3.9589289378742816 14.620191677733443 -5 3 0
193 2 0.10741104374630214 5.985331944512087 16.958723061052257 -4 2 0
241 1 0.4473052075600196 4.437543990561047 16.602901079559157 -4 2 0
93 2 4.347043111274488 4.66793052925156 14.43393943284796 -5 2 0
6 2 7.137537487616497 4.260281412485967 14.591577090670999 -5 2 0
98 1 8.675874700582174 4.741294984510596 14.916199043322266 -5 2 0
115 2 8.695939234199763 6.3724568490390885 14.918879606182637 -5 2 0
59 1 9.752707610222597 7.555603136559085 15.23392649588169 -5 2 0
63 2 10.498720738616937 7.278166555323616 16.65601872283045 -5 2 0
249 2 10.891925231077886 7.628915354620259 14.0965292020697 -6 2 0
124 2 4.3683524502124955 9.368514866149084 15.895595140327115 -4 2 0
77 1 5.341572220905643 10.137254556700777 16.969910632894248 -5 2 0
80 2 6.907764844500658 9.709767771797765 16.865727710310654 -5 2 0
70 1 8.283407354580987 10.179206373666299 16.129924418813278 -5 2 0
205 2 8.040443129278675 11.325856264294242 15.008135513622406 -5 2 0
139 2 8.93363384242443 8.941961762630141 15.330005606152866 -5 2 0
108 2 9.31287789581604 10.754125933547888 17.2772777326686 -5 2 0
62 1 10.918529479642311 11.022584222106316 17.407668893087706 -5 2 0
83 2 13.640532440799854 7.202860744871617 15.08795731748576 -5 2 0
60 1 14.182534144140725 7.257087001722712 16.61523849395861 -5 3 0
58 2 0.861955423242565 14.498895271207758 14.762382412644644 -5 2 0
295 1 0.8700473449504437 0.06581786641100733 16.283430301693574 -4 3 0
52 2 0.5116870250558666 13.863136846470855 17.32040806959998 -5 2 0
274 2 4.41868644789885 13.471764561866856 14.909453619178823 -5 2 0
134 1 5.449527881321416 13.23235334353028 16.18134839388641 -5 2 0
109 2 6.940640621265792 13.599530621084412 15.636421104550472 -5 2 0
215 2 5.229548574711007 11.738632548663828 16.765708580303077 -4 2 0
87 2 5.371421951068624 14.142750103072935 17.55501959867441 -4 1 0
123 1 8.163789394542837 12.942912411340785 14.807290823705072 -4 2 0
4 2 9.560376800647177 13.514368127706195 15.423941474891961 -5 1 0
10 2 11.529252271623744 11.902329715639942 16.170920555591323 -5 1 0
24 2 12.114141117990577 14.317150546446051 15.14762395880251 -5 1 0
146 1 11.091852739071497 13.04843500030945 15.081601653938387 -5 2 0
177 2 3.3752299933856205 2.7125831816694177 17.871677515592584 -4 2 0
102 1 4.149995364147356 2.5367505717754755 19.335948556637724 -5 2 0
132 2 5.309120121238532 1.3371928775247939 19.131070981342994 -5 3 0
45 1 5.891685131200695 0.6823052551213692 17.730395982516196 -4 2 0
211 1 8.698783733392297 1.6368318215306445 18.674242036068115 -5 3 0
126 2 8.335614119901459 3.2388314545098296 18.759402294599564 -5 3 0
297 2 7.545750424584819 0.8611090219319673 17.76388936831066 -4 3 0
89 1 9.287238255207862 4.37575392221258 18.026096544309723 -5 2 0
186 2 12.286175420681971 2.3839941770967434 16.76928902987781 -6 2 0
71 1 11.594010117375591 2.5806950698622813 18.20487755795742 -5 3 0
116 1 14.562651650239335 2.714362206184801 19.247177901000523 -5 2 0
200 2 0.28046101414327373 3.625073459162852 18.051735728914068 -4 2 0
1 2 8.911665232097064 7.0985532044755795 21.180160369040017 -6 2 0
138 1 9.518998865708376 6.877184877085207 19.793692161745277 -5 2 0
85 2 8.955483169517333 5.826767121525053 18.676427306184877 -5 2 0
204 2 12.887430425971687 2.590600079719969 19.23741964074941 -6 3 0
18 2 10.859390666636848 4.041382414159195 18.361426973021146 -5 2 0
198 2 12.95129160110119 7.289958744222659 17.67829236658402 -5 2 0
196 2 10.804909341241016 7.689666228713365 19.206716710705756 -5 2 0
120 2 0.03338708059711116 8.636816617484085 16.83621477979609 -4 2 0
143 1 1.2047534736943908 9.685696306691385 17.10843305309329 -4 2 0
32 2 0.6763848296185823 11.21152893152288 17.139512713244635 -5 2 0
88 2 2.158423966022251 9.269899464855904 18.338349540599452 -4 1 0
121 1 3.3877671264708127 9.812928227150438 19.318337965655672 -4 2 0
29 2 4.784072238431161 9.776985730866873 18.46687327585616 -5 2 0
199 1 11.482120952624193 7.976056866572337 17.74257815740333 -5 2 0
140 2 11.673595481976465 9.578455909714796 17.488702783382365 -5 2 0
175 2 13.816019986548461 12.265731227473832 18.611420189634057 -5 1 0
185 1 0.37210999021983177 12.489271137893653 18.14948803834946 -5 2 0
152 2 1.3585523210900465 12.422022410954364 19.417320691930676 -4 2 0
130 1 2.7441980754037556 11.913522553844013 20.223338032551244 -5 2 0
181 2 3.334269773075336 12.60391871704233 21.457853755098412 -5 2 0
273 2 10.320962193865153 1.4864349360864983 18.321812703914585 -5 3 0
149 2 11.225538597952175 11.871044300604085 18.777577655804016 -5 2 0
169 1 12.432925295272637 12.890178027175475 19.183771393061335 -5 2 0
147 2 12.277031932950747 14.18395203698832 19.985338535874074 -5 2 0

Velocities

74 3.1416819987276368 -9.775558423874344 -0.46375325311097715
49 0 0 0
207 0 0 0
158 -2.542057758914566 -3.994027506138203 -4.314753039535153
76 0 0 0
133 0 0 0
208 0 0 0
81 -3.4332304910998412 -1.2115315399389717 1.61596801308321
164 3.6017960455080877 2.617504328474656 -0.22342879143258343
91 2.2512429584722136 1.2494258942899101 -0.8352869331680465
162 -4.889863353243738 -4.373634955554034 -2.6468330379741674
188 0 0 0
201 2.971755732274835 6.155505520623856 -0.1815413745710138
23 0 0 0
137 0 0 0
170 -0.17262265313453812 7.106078473018723 3.0753377844555936
176 -1.606169271995907 -6.845473150719943 -4.608348344387308
96 0 0 0
100 5.631961713733376 -3.9902624352007305 -7.955167399864992
28 -1.6435013240848784 -3.1367015356237453 3.647864153107816
90 0 0 0
189 0 0 0
127 0 0 0
161 0 0 0
79 4.122542979257263 1.5569213659005163 -0.6753103547980086
78 -1.5132537567235242 -5.523871655054439 -4.634725149141453
117 0 0 0
7 0 0 0
159 6.753704280985532 3.5216101437343195 1.7052303582955544
160 -0.6028860636774884 1.6901730611855732 -3.281676795432092
3 0 0 0
125 0 0 0
94 0 0 0
34 0 0 0
171 0 0 0
112 0 0 0
240 -4.574807490068726 -0.420020301280859 4.86301172936749
107 0 0 0
225 11.704111640489286 -9.473985485856899 -2.8331010517021684
5 0 0 0
244 0 0 0
218 0 0 0
202 -2.4049005653729294 1.8985429116850217 1.5047101658594504
250 -1.5677917071224354 -3.371676634302278 -5.182223937573717
122 -10.058817805529157 -1.7561851009663916 2.926377111089003
155 0 0 0
183 0 0 0
206 0 0 0
237 0 0 0
82 0 0 0
157 0 0 0
163 0.2637817371755871 -3.828631793106294 -6.552246388550339
54 0 0 0
148 0 0 0
111 0 0 0
145 2.422594972391167 0.1648130902698451 -2.031036298321157
281 -1.9173673918061247 2.5154883463807147 -3.33278651319168
101 -1.3428819839475505 7.7187928546337545 -0.3909588540717444
92 -5.27529768841799 1.7674427869074691 10.84178714279073
270 6.925125665449769 -2.3519672113456327 -0.9807917693806875
247 -6.099307823107574 3.083201792269887 -1.3037455776471092
210 0.5615517771980788 -5.087026459743657 3.1815964825212117
228 2.1720241038423724 -0.21308449943744745 2.5683982248496506
223 -0.8408355524716308 -3.547051031359699 12.421057928557527
195 1.0916299403057443 0.12316739467359387 -3.011061528532875
150 -1.3838482712225921 -2.667255057067446 3.132234165366416
242 -8.619277136898974 9.439135131100516 3.3964732650956164
267 -5.8386187481835465 -1.2212336612979886 -1.4731185797249182
97 -4.272503399802459 3.454764234703631 7.8592287881646286
220 -2.477973130687446 -2.684065232935664 -0.8179079545153304
178 6.26402367296466 -0.7608278477913724 -2.0928170905689236
243 -9.25130346213362 -2.234112154235382 1.7569028243225553
154 -2.8280735605000746 2.9023759052796962 -4.379201966225235
84 3.6140965595233605 2.990497415859745 -0.27096522373372695
246 -9.000716631848489 1.1328475705479026 0.3325200741304564
248 -1.7153295570032268 0.3342672088352934 -4.160850698252603
64 1.9200154597159955 -3.7835245385332303 8.402287235544113
153 0.2786724982641974 -3.9848702971888668 1.2039423636499824
260 -4.733789197216137 1.9578129387398628 1.3433696748948492
254 2.7067064718378044 3.0453146048476087 -1.1710924817560138
21 1.466291222781551 0.269152559770474 -0.6836661052752901
192 7.341399155663925 -5.611416897796838 1.096007907711461
165 0.657220417922114 0.5055447495426487 -6.8768783599930785
226 1.339077242659687 5.362489434782541 1.592316036883122
214 -5.662171220834399 -5.289559141272886 -7.5301168504096285
104 3.6342880219136027 -13.765010704839868 -1.194475304555059
172 6.591158151973535 -0.7124568690323331 -2.1186957807642366
73 -3.4128965000847726 -1.5848030605257892 -3.573952874292104
285 -7.018382222986589 1.46653274094543 -0.5926856179666158
168 -1.4525824439691875 0.7054377988628449 -3.197029340175114
141 1.7562204817946712 0.06634705465016615 4.734529380970288
179 -8.48050117910446 1.9073646676777938 3.166117528409748
203 -1.6924726419762142 -0.05688370606969199 1.5607621442270028
265 3.2513610139163003 -1.1954273893894394 4.6432109999123785
30 5.25446688159856 -2.5815958751499832 1.0506195823200908
219 -2.1197094335676328 8.64146080173025 -2.740750684143234
292 -0.019325791098200835 -3.3831611828033883 -1.3136175990928218
222 2.2204834854532267 0.18433589254556157 -2.2222652013213198
278 1.8552647223196361 4.187181350457942 3.7225138473820643
119 -5.224940498952058 -4.955148891234974 -1.435923327863342
2 1.1921489019237363 -6.497609164563627 0.1952998830155822
275 2.3486828296095363 -3.303366987781325 -2.943413531603704
174 11.077712393815807 -3.586724581982987 -4.291010232323567
213 -1.9461285308320784 5.870873793431447 5.798111305007415
216 -0.8748847851607675 4.248957945544097 6.973500705558525
221 -6.34609261517118 -0.2564242439137141 3.4660453514269505
217 -0.8543227329429108 -6.605351247154538 -2.568770156700704
245 -3.3578030127446414 -2.9629191083209867 -4.196010702633929
290 5.562999009210353 0.6233225579410063 4.008552689519046
166 3.4449962339464464 2.9236613291115856 1.6978510253254513
272 6.358742971078563 15.136302304970874 -0.7357086898241744
253 11.210196249176095 1.1304001979093068 9.250749307736301
230 1.332780722973421 -6.2507754127216435 -5.844721707088113
56 1.364145491207969 2.775826528797459 4.653923048752691
173 -5.367147291160422 5.020737353097271 3.713187950555069
42 1.8449384880059843 4.27476811468391 -3.2813223014948827
236 -8.231239142531061 -7.032825609326209 3.264067628068095
182 5.724941391753707 4.969610991469215 -9.40752728427641
9 -8.623027764061467 -3.231196674026513 -1.3749360801439745
212 -2.035080684445583 2.3614003944152984 4.851938163856909
136 6.362464602481503 -5.699299594809383 -1.5956633973897743
234 -3.3157552483198836 6.227971425139641 1.3791395878153037
238 -0.00670354543165541 -4.045300834704853 3.67176213049986
8 -4.82880288572647 -2.9247603542372294 -8.75579044807178
17 -2.7647781511740788 7.617006674263461 1.2856782596118106
268 1.4163538905486113 -5.955671544281137 -5.095898315384134
13 -0.5501275875008318 -1.156553984681048 -6.6880251716205
262 12.377048779018166 -4.7139720802698495 -1.3554379793445597
190 -6.072627636662608 -6.4015509590651725 3.7771879180187335
227 0.8117388720733435 -5.5904370249521556 0.5618522239189927
16 -11.101057180714081 -7.630223636018202 -1.3308849222701964
53 -3.420947180849714 -4.337397063362009 -2.8146997321248004
252 0.2782627182994389 -1.2302053143062053 0.8810761124103496
251 -1.13130467692309 -0.65738349149065 -5.385649765809204
232 3.5199200842806624 -0.25452149956369774 -6.252091892788956
43 -2.2743676946973577 4.762140684737047 2.8200986828917673
95 8.907115943374478 10.631775592033915 -4.0862982520507645
271 -3.815984616300412 15.511051920694994 -4.016060431696513
26 3.6572626689280368 -1.1845782516742067 -1.6246447327396198
277 -5.825155395984589 5.105583425790094 2.9391716960720826
57 4.614412517236984 -1.5401230071771803 2.724079252088408
180 3.275500121892085 1.5047192800168365 0.7861753045231497
46 -1.0382629704160693 -4.153718869297441 -0.6536252094874097
280 -9.71009239503469 11.04667764212774 -5.27725177175568
191 -0.38486627978487387 1.8207929794346647 0.5822154989221268
110 -0.9351712975877732 -2.170470068552119 -7.497006932465874
264 -1.7729699920906963 -2.372345246128595 -1.0491866881197858
255 -1.0905930169763125 3.9125142354488447 0.3734804866443901
261 2.0209106457757575 1.5756337057101963 -0.3965472650725771
258 1.1556016198482588 4.510911671838831 2.0763270534381912
105 -1.8009536353826165 -7.04692099069322 0.8031358716415786
229 -2.8966893735577597 -11.879407486645526 8.143672718450794
239 5.271016337506637 0.027921917603934577 -3.7227796102229336
286 -0.7963182935967966 -3.4464888082148097 7.907755408243019
194 -0.6368614091960113 0.19439014640946392 -2.202453026324772
282 0.04893257632523687 11.82833686567906 -2.396259857477124
284 -0.5736256087219902 -2.2519833863567116 -5.992691429986626
61 -9.377418694620472 -1.7997436788910421 3.5859525997346244
259 -5.766249222569554 -8.57260719006955 2.30237769403944
68 6.49177210429571 -3.480952807279022 -4.61898387416473
144 -0.8179820348242707 6.239659623805374 -9.294707354451184
294 1.0551322509631544 -3.3442345748260145 9.272516657996372
27 3.1480925664440433 -3.1514375312598086 0.8588827661108621
67 4.262304476529924 -0.6969863200528172 -3.629930533958611
65 -1.4969654588570636 -1.0020971307767794 -3.486635597765041
114 -6.760737722546935 0.0016427470457622672 -1.9164658233213825
209 -2.0034261805278724 8.495800178984329 -1.8945885630117707
233 -5.45826935464488 1.4787510516094378 4.138553290579286
41 1.4415588958210228 -5.200688403405575 0.8447475372575071
187 -0.17388340544342828 10.19364575997701 9.949789525824285
11 3.506179245820779 -2.3172326176516096 -3.773182582196318
113 -0.42425263258082224 -0.9385480202537901 0.40920022594848704
19 8.945980202864273 1.5317311996728502 0.6763896894136094
103 -3.9219815559392877 -5.471271771904143 2.532996627978074
288 4.941983641026888 -6.782291899861371 -4.9039901221165865
296 1.2072044502012012 -2.3531534699753327 4.6281262570764765
50 -0.38557988234423773 -1.802579943521092 -3.1158957088726087
36 4.651201373496767 -0.1637206705302942 -3.1463371875530854
75 -9.120564073395391 5.260637567181201 -2.03973634270174
235 -3.705566636719242 -0.4590999646002008 -8.616694571716886
38 -4.773352805179832 -3.2763902048359146 1.9923406848263006
12 3.7147318834374863 2.9051338518664056 -4.0373349693485485
31 -4.556773492899761 0.22096341376954565 1.0388521020917438
231 0.15270031717562824 7.585872674957025 4.494008122856712
22 1.076777733879623 -1.305849730946869 5.762835597068782