LAMMPS data file via write_data, version 2 Aug 2023, timestep = 87000, units = metal

795 atoms
5 atom types

0 20 xlo xhi
0 20 ylo yhi
0 30 zlo zhi
0 0 0 xy xz yz

Masses

1 28.0855
2 15.999
3 12.011
4 1.00784
5 18.998

Atoms # atomic

1 2 0.9708183723269217 4.053903473188483 2.0035040536911684 0 0 0
52 2 3.758011785006099 1.2413894888543062 2.9608255811198654 0 0 0
180 2 3.6270355003376227 1.5624595331580193 5.62621261157457 0 0 0
677 1 2.70505691910311 1.5953640946468115 4.241765005678423 0 0 1
431 2 2.2324512414078805 3.0797849458150055 3.9517016646981724 1 0 1
80 1 1.038322274719469 4.0017611510926425 3.611681747566826 0 0 0
7 1 1.0284997855623863 3.0762246614281152 0.706059944649307 0 0 0
351 2 2.3541071610332347 2.072096108061457 0.8334120590512369 0 0 0
34 2 1.4105566737925865 0.5964564541101081 4.461227244211438 1 0 0
574 1 3.0005923053540915 0.745850337858035 0.13771601617136484 0 0 1
57 2 0.22380363795295524 3.2457213377725767 6.598206102682436 1 0 0
679 2 5.016150906910034 3.706242892241084 0.039318036152719595 0 0 1
745 1 6.6711492280071685 4.594078682831833 5.236572599242761 0 0 1
59 1 5.201148173341817 1.881990252900472 5.684296337991334 0 0 0
179 1 5.351339512998168 0.9377716428584005 2.9212052714015413 0 0 0
691 2 8.165403631451857 4.041359159271761 5.203604096178762 0 0 1
784 2 9.015416372882068 0.4930428910330656 2.6794781073797904 0 1 0
18 2 5.96900577661771 1.181284494561867 4.4264810795920795 0 0 0
756 2 5.718330979741189 1.453864107640094 7.200083031504836 0 0 1
475 1 5.575968787229057 2.269330112253092 0.25825553927782585 0 0 1
413 2 6.062880610748525 1.8477936345388457 1.8219515728520317 0 0 1
719 2 5.578738631046447 3.5536964147347208 5.7462603762302695 0 0 1
716 1 9.729714412084947 3.6228898310408097 5.056238200111921 0 0 1
70 2 9.744359199357678 2.034860275431191 4.658111238797508 0 0 0
26 1 9.574963591445327 0.4866357492263115 4.185348336764969 0 0 0
683 1 9.836542081175688 0.4223871094559021 1.1888363008024054 0 0 1
508 2 1.952493041480291 0.8790697021283989 13.507535582470782 0 0 0
340 1 2.752413186493881 3.212110502936112 11.932058987636806 0 0 0
50 2 3.55292846922789 1.8012177995407193 11.709353123284192 0 0 0
380 2 2.507399637667546 3.4369385255747846 13.6043250093016 0 0 0
117 2 1.2421679222913447 3.4189511489860482 11.295779908699586 0 1 0
336 2 4.424387186987035 3.3326483626949783 8.86525111241139 0 0 0
366 1 1.5785828869843734 2.2978426604638176 14.32751626581204 0 0 0
295 1 3.4557158167561286 0.6254825101418293 12.869655563314666 0 0 0
739 2 3.822517876241482 0.8741800424520725 9.161137958131299 -1 0 1
87 1 4.412707568924334 4.708450883403966 9.726376504682678 0 0 0
237 2 0.5589610562204838 4.608202506776208 9.072029018844754 0 1 0
714 2 3.6886974115778886 4.349373542765718 11.185377690529457 0 0 1
540 2 4.535933703249456 0.8156563697141334 14.086554091363343 0 0 0
209 1 0.3145299788078305 4.595286293370311 10.750787071439598 0 0 0
369 2 0.49906771167207176 2.054445466521267 8.97959362229014 0 0 0
572 2 0.030296847644506464 2.8069359001181766 14.275954112570783 0 0 0
348 1 5.009384363615484 1.901235193518106 8.672384670401646 0 0 0
40 1 0.025107428624037184 0.49076751711959293 8.916916032871514 0 0 0
408 1 8.085998680328137 0.2109694717491713 13.060693046852688 0 0 0
272 2 5.645095269026871 4.612631568949505 14.880060171382118 0 -1 0
198 2 7.9840010668315555 3.1748406714043065 14.275870737350616 0 0 0
304 2 9.347079405365225 0.9890093195312445 13.647235028073409 0 0 0
60 1 9.713882954448488 3.507160569638839 10.704765429693984 0 0 0
310 1 9.486136867494448 2.6328872804985703 13.761675728964747 0 0 0
382 2 9.148572328494435 2.1347794767062047 10.00270835827384 0 0 0
388 2 9.85536561757428 3.173769891070581 12.291597175500728 0 0 0
195 1 7.697795095469061 1.375988203726982 10.172504621646974 0 0 0
192 2 7.497761181132761 1.1702584236232079 11.83423543902591 0 0 0
342 2 6.288257134785752 2.024358299282375 9.79953238898843 0 0 0
58 2 8.486610572196586 4.652167720905057 10.47827861567946 0 0 0
354 1 7.1599021307856106 4.6583145834204585 14.15718790905952 0 0 0
151 1 5.681167418324331 0.05248827844073819 14.940223561728143 0 0 0
367 2 4.235761686716504 2.1213938101082226 16.497881322068906 0 1 0
297 1 2.7763929275250794 1.5822686396729844 17.05828332077718 0 0 0
333 2 2.6002781259303136 2.29111520087254 18.496849921384964 0 0 0
327 1 1.6220671472535724 3.4517361688549872 19.091772433309842 0 0 0
339 2 1.6990880103099513 2.0006187895653937 15.901348428485115 0 0 0
171 2 1.8061297605040074 3.431114374234055 20.65664302378186 1 0 0
401 1 1.4005387188736496 3.7740095082292124 22.16778361790976 0 0 0
229 2 1.9810123007523128 4.943980267445784 18.537450233717422 1 0 0
384 2 6.787044600213433 3.4555406239929742 17.252980211358906 0 1 0
587 2 8.282888377138168 2.3151223095211386 19.016488049219298 0 0 0
416 1 9.565434057570243 0.981582228137632 21.539493668557192 0 0 0
415 2 6.590771688398501 4.152180392240804 20.125864066093172 0 0 0
409 1 6.870697678656525 3.0867104865551824 18.91766852741135 0 0 0
446 1 5.749127176930338 2.0870944615858917 17.119722827176485 0 0 0
275 1 9.260407833902896 1.0583948366690275 18.70438163029583 0 0 0
405 2 5.680618979600396 1.902108061509732 18.817793979797546 0 0 0
178 2 6.463355924918934 0.9106444322734508 16.177139419873065 0 0 0
303 2 8.291995159686234 1.945413275335677 21.870648115525483 0 0 0
239 2 2.509742294972295 0.028684740507411988 17.36323639937635 0 1 0
434 2 0.03284303688243728 2.8928583718894667 18.81987184877484 0 0 0
299 1 3.419593172369571 3.442045258991715 24.410881973360397 0 0 0
472 2 4.2501097431013335 2.0486266204977066 24.706336055397887 0 0 0
702 2 0.9965967440207057 3.6572290051235394 29.228633916997453 0 0 0
632 2 2.8106186501471293 4.140249038930244 25.730501393806094 1 0 0
205 2 4.274908020066289 4.6926076094922555 23.62705440977877 0 0 0
594 2 9.110115235249797 1.500027021153456 24.50091818457143 0 0 0
461 2 0.3732591517421443 0.2794216443319539 27.046907881341482 0 0 0
404 1 0.1291989082152193 4.231697101463982 28.028803610195567 0 0 0
294 2 2.3037446833626247 3.0896856208917987 23.30261222925801 0 0 0
607 2 2.199540095202989 0.339556567953783 28.77634697542807 0 0 0
181 2 4.499453329436729 1.160505217951975 29.821595018917296 0 0 -1
732 2 9.285406926296137 3.261369475005539 28.672615063658377 -1 0 0
620 2 6.548743120004027 1.4936007985376145 23.475320281343674 0 0 0
678 2 6.880357743379971 2.1392661007679417 29.371174031441814 0 0 0
592 1 8.325189160958024 1.9200744090216895 28.78333278517088 0 0 0
576 2 6.034838873787636 0.16079591417630362 25.795284235780922 0 0 0
575 1 4.772906990226692 4.645311337525828 28.711957715843237 0 0 0
709 2 5.246403224087147 4.025124240558798 27.26097245383022 0 0 0
581 1 6.504183747161183 4.290070039870529 26.212260833872946 0 0 0
650 1 9.084875785716665 4.894859520723292 22.938335044959086 0 0 0
488 1 9.178778945804039 0.8186957036411747 26.051445167870856 0 0 0
571 1 5.8278901542389905 1.5503859141523748 24.94196698325309 0 0 0
671 2 6.6829583117283615 2.7559092103836456 25.67843717994772 0 0 0
486 2 8.010777560564966 3.8055195621419986 23.537147671565354 0 0 0
718 1 9.316383796282636 4.460718269557063 27.6545988245621 0 0 0
582 2 7.973059764540402 4.675618169932227 26.821652278105084 0 0 0
551 2 8.242769256269245 1.4120435999830696 27.250854984724764 0 0 0
423 1 8.032856567191269 2.156071096036465 23.419252074214757 0 0 0
772 2 3.2536286055921293 4.976182525413023 28.409802537638306 0 0 0
689 2 9.166401839281347 1.017730421137721 29.832306369530038 0 0 0
241 2 1.908315477145962 8.023666412598923 4.342313490836146 0 0 0
621 1 3.2210933817963916 8.408744269302769 3.531784777331772 0 0 1
254 1 1.4762650233570243 6.660762422702878 5.24670153578319 0 0 0
603 2 4.157119667116077 7.029986577644963 3.4158989946684843 0 0 1
684 2 2.4542178261294327 6.4307584316184965 6.545554227133964 0 -1 1
754 2 2.8173332724499387 9.092007697783316 2.1311438563828937 0 0 1
639 2 4.0642181841861795 9.586331037695393 4.392196947056321 0 0 1
647 2 1.346991417596623 5.505758939061395 4.247979598888022 0 0 1
126 2 0.4409363401579366 8.613997134798703 1.181970807374578 0 0 0
247 2 0.5862847766292548 9.855375200569263 6.998861778010766 0 0 0
211 2 6.849908204016225 8.377601685397405 5.84793922600531 0 0 0
46 2 4.68174559488461 7.475157320167498 7.06880245178627 0 0 0
12 1 1.419805389588792 9.861345870548979 1.5634363379124026 0 0 0
98 2 8.004711636973676 6.707172200001583 0.34615718539604307 0 0 0
750 1 6.371270578459197 6.774431769179405 0.15955153250383994 0 0 1
54 2 5.763483253160354 6.12910981947222 1.4718826355032268 0 0 0
218 1 6.259354508872223 7.253511760961575 6.861653306628994 0 0 0
96 2 6.055926688489679 5.1556470520492335 3.857558948646648 0 0 0
76 2 6.707625975005369 7.776017594705731 3.257221699743559 -1 0 0
97 1 7.7668904841016015 8.212010379010731 4.4957509054106986 0 0 0
755 1 5.660926967817148 6.516412671966286 3.0119302076902392 0 0 1
697 2 8.571233516431942 9.464701567818901 3.98089426634787 0 -1 1
90 2 6.607762775894158 5.747991234949151 6.395636068751367 0 0 0
89 2 9.06593909939674 7.175653490187531 4.614692906465301 0 0 0
543 2 0.031438041979803266 7.213656257493561 5.8736836378468364 0 0 1
712 1 1.1513401937885916 9.379667481675988 8.45219245729773 0 0 1
95 2 2.4981405348205246 8.479936892831132 8.311065852746303 0 0 0
45 2 3.719806562364894 6.02998854337772 8.97121350382592 0 0 0
738 1 3.2733425595542 7.0828841229821204 7.822645859119057 0 0 1
212 2 0.4856369924734876 6.059106439825923 11.537765312380948 0 0 0
125 1 7.209754795162695 5.487740547973958 11.065378116367523 0 0 0
273 2 9.48377508106085 7.855109068662596 13.90239457919896 0 -1 0
749 2 9.41979629223178 7.471858027549638 9.222696418133776 0 0 0
220 2 9.174641036232947 9.65580588330759 11.954378381106016 0 0 0
219 1 7.876593293847036 7.873656841461237 9.531727425099179 0 0 0
85 2 7.8126391506254045 9.495383427855497 9.702035137288089 0 0 0
127 2 6.911142880380046 7.536189537164139 8.31952669599619 0 0 0
256 2 7.4634347930066784 7.069192833003726 10.935108738286848 0 0 0
383 2 8.077306031411082 5.785625856765 14.813809766613632 0 0 0
752 1 9.791560724348797 9.330443863132258 13.471238722211789 0 0 1
579 2 0.04115133781133817 8.428788670225558 9.05072004146859 0 0 1
91 2 5.936478953203648 5.040377151207208 10.165805832172513 0 0 0
109 2 6.935705786799363 5.005031292510028 12.618631641632739 0 0 0
644 1 2.4784087849536736 8.39749225933343 19.203206521706605 0 0 0
360 2 3.2201423821626425 7.332912493067719 18.180706109465483 1 0 0
445 2 2.1137208956551774 7.3830273831244675 20.4297609460708 0 0 0
376 2 1.2944577462168314 8.949194366922761 18.32624756153803 0 0 0
298 1 1.3219693329170559 6.979390524881849 21.838064064677912 0 0 0
470 1 3.1659817560478265 5.74579444651838 17.69655739164033 0 0 0
217 1 4.790530452934057 5.508096269179892 16.00059543731595 0 0 0
617 2 3.233957998885014 9.75589704212875 19.706846080951546 0 0 0
347 2 3.0577324546685962 5.432781195555918 16.026510279285166 0 0 0
441 2 4.819331218379684 5.296326115106121 17.704586611591758 0 0 0
471 2 6.13968416175644 6.021577084561023 22.26003605874257 0 0 0
614 2 8.640318370110993 5.30763910024854 21.42879120739572 0 0 0
215 1 6.011661099500936 8.377659042955028 16.114160351445584 0 0 0
308 2 6.348034729519188 8.294961073516754 17.671596330562963 0 0 0
345 2 5.263979645702118 7.014276990742134 15.545639032373517 0 0 0
88 2 5.190307811279034 9.574362158729485 15.281274978597141 0 0 0
309 2 1.5247522860245684 5.438241082825012 22.23571549338681 1 0 0
216 2 9.560882596948934 6.9441121450150645 16.50580832755935 0 0 0
452 2 7.0252243404085535 6.746875417537188 19.82673055543725 0 0 0
182 2 7.520807239819956 8.318562713173437 15.379413239624014 0 0 0
509 1 7.0459614607788446 5.548188197191236 20.897396356319753 0 0 0
358 2 5.75570946992173 8.985190712155752 20.14372778837359 1 0 0
378 2 8.27096769187342 9.14142955611296 19.325804228712826 0 0 0
467 1 6.8759973777182175 8.292291646253638 19.231019717582225 0 0 0
350 1 8.696629238164407 7.239434449613704 15.181869806551195 0 0 0
496 2 3.4818470266443042 6.657671873596888 26.555219082396764 0 0 0
463 1 4.037577500092074 7.9933887817115625 25.715865033101355 0 0 0
604 2 2.702130394173154 8.836939136255786 25.47402845841248 0 0 0
547 1 1.6487456109732324 9.01275097944217 24.192271107934967 0 -1 0
542 2 4.695570330520713 7.2834311227551485 24.330829691243107 0 -1 0
493 2 0.11888436299472238 8.621074973643083 24.736394068383206 0 0 0
466 2 2.0270196883451796 8.013303819892519 22.976554705663425 0 0 0
737 2 1.0204272265216214 5.31957243744317 27.17523611138278 0 0 0
251 2 5.0097013129230294 9.001270573162811 26.510168338375664 0 0 -1
450 1 2.6934444327683558 5.285324298866594 26.945393744960455 0 0 0
107 2 9.935088473276835 7.437234238690572 26.13307736553916 0 0 -1
723 1 9.102113296399473 7.21489529755257 29.21269461218615 0 0 0
744 2 7.722101055893943 8.574695577871605 25.294992346684328 0 0 0
724 2 5.773818149613876 5.875744804864489 28.94085483605821 0 0 0
593 2 9.641458075390705 5.788178758702664 28.5260136513321 0 0 0
640 2 6.27448469909902 5.447167006058264 25.116054257661325 0 0 0
758 1 8.736608077435335 8.398750482462047 26.561982529624103 0 0 0
426 2 9.27160075272859 6.301835412474816 23.814189253035742 0 0 0
657 2 8.141116175223724 7.891679101251876 27.982481789627723 0 0 0
344 1 5.44284965146267 5.898174903131408 23.753880287046623 0 0 0
128 1 6.26837822793465 9.93291719793958 29.85640793481225 0 0 -1
654 2 9.34338894577644 9.882707105005913 26.972022284111663 0 0 0
742 2 6.027857423690589 8.3276671079735 29.793605974105564 0 0 0
175 1 4.045722804833575 11.173136280876237 4.581874968059143 0 -1 0
37 2 2.441018737294879 11.43016667925636 4.91411356468625 0 -1 0
735 1 3.0356713675378613 14.135163216941836 1.0201524299079738 0 -1 1
699 2 1.4368423989530585 13.774554853801957 1.0819544869607622 1 -1 1
55 1 0.9995441453918219 11.663815650631209 4.14442355249678 0 -1 0
782 2 3.84131306950263 12.728019499866186 0.7040454506654719 0 0 1
770 2 1.1824881108441216 11.110064984862511 0.3721598596946275 0 0 1
743 2 0.8650173289323453 13.2518601624213 4.008393474420098 0 0 1
666 1 0.4213614612243721 12.578374195529246 0.4918890261299232 1 -1 1
606 2 0.8314647059000091 10.574637151553688 2.9126740761508763 0 0 1
670 2 3.9213863452151303 14.659099352232507 2.3787802062933086 0 -1 1
764 2 4.383505267563593 11.614583438371167 3.0487266676362124 0 0 1
32 2 9.128411773905388 11.251880915676919 5.725412363126896 0 -1 0
130 2 8.903901990610413 12.597188154633642 0.6078720235178774 0 0 0
790 2 8.534492770963361 11.777711389274097 3.127270916389118 0 0 1
160 2 9.819670633936182 13.661252196055491 5.664985951715407 0 -1 0
47 2 5.504450475143584 13.74092931140744 4.442391841739784 0 -1 0
123 2 5.030488965448871 11.668123389084489 5.779245220827387 0 0 0
193 1 5.7413588812369545 13.123567626789374 5.967152481159289 0 -1 0
778 1 4.937949289987541 11.858604788181808 1.5492520342342562 0 0 1
765 2 4.921022956989358 10.45322788203405 0.6557690847023561 0 -1 0
787 1 7.824401170632851 11.759581013413436 1.6160365652800612 0 0 1
695 1 9.323717190391271 10.89323002937807 4.207400175972337 0 -1 1
786 2 5.0817996839365485 14.004297321479438 7.184263018663327 0 -1 1
29 1 8.932732080910203 12.62769166123558 6.5303507530142495 0 -1 0
67 2 7.339726556500513 12.983558172493467 6.33069940897069 0 -1 0
118 2 7.5484533311547 10.305738981413535 0.8577838471628257 0 -1 0
753 2 6.4354411662680935 12.561634134528587 1.7793070762569847 0 0 1
31 1 9.99182613830666 14.981688964604054 4.749945662368262 0 -1 0
794 1 4.864980850399732 14.934792264045942 3.6483183691682095 1 0 1
234 2 1.6245788345023562 13.345559039300241 9.350882422464007 0 0 0
177 2 1.4905938910578984 10.726336664409924 9.402741751341084 0 0 0
248 1 0.5911247530469854 12.10188990592985 9.275697870138574 0 0 0
391 2 1.1463529818375005 13.422818409341346 14.464449092205511 1 -1 0
258 2 0.11989033987937936 14.69030878581137 12.491039778418182 1 0 0
710 2 9.075614047467162 10.42092665110923 14.398365586656707 0 0 1
240 2 5.764189803904736 13.649589687724063 11.72762955245132 0 0 0
257 1 9.098923831484518 12.032623838435955 14.368394557045365 0 0 0
120 1 9.0505677085882 10.350505771046763 10.456658702574039 0 0 0
169 2 9.105514986435697 14.494529406837497 10.02966650056293 0 -1 0
119 2 5.5761554767235735 11.74920758141061 13.707248431811477 0 0 0
250 2 6.499694262555047 14.276004125795243 14.198078611997415 0 0 0
133 2 8.850110222029599 11.949585799458157 10.45285350489205 0 0 0
191 1 9.788236071696687 13.049728342929118 9.61119044617941 0 -1 0
104 2 9.497355649971633 12.619854796531929 8.045762437118059 0 -1 0
163 1 6.447313999440926 13.009962362189816 13.18971259288611 0 -1 0
291 2 8.156769811858114 12.651177059782604 13.079505845133438 0 -1 0
287 2 3.2102096617872777 11.552022763353833 14.813857149116231 1 -1 0
381 2 4.249571166645722 13.542262686951974 18.328471367471522 0 0 0
406 1 2.6821280916897656 13.80421517427858 18.152983473218622 0 0 0
232 2 2.094762352578954 12.792534254170928 17.00920001177997 0 0 0
315 2 2.0934290732520475 13.799388646439258 19.682559700696554 1 0 0
260 1 1.8426354128740519 12.252800136818237 15.426131529012604 1 0 0
396 2 0.7008136197911903 11.11693714698272 15.396855714733842 1 0 0
236 1 4.8110683971966 11.197134668336515 15.026275248114121 0 0 0
375 1 4.751868680813505 10.297521346555062 20.16670052566856 0 0 0
612 2 4.990334065393675 11.150434380033644 21.504776071124784 0 0 0
485 1 5.374085292926715 12.503734570284522 17.905677530264203 1 0 0
648 1 6.501405179017318 11.434878225252428 22.112068807950653 0 0 0
494 2 1.2847833752018076 14.551157035263135 22.219170795019682 0 -1 0
271 1 8.255007409613848 12.980783780624721 17.308155758851385 0 -1 0
394 2 5.200920327102646 12.037305285606905 16.33834296789319 1 0 0
144 2 6.693693805085344 13.279021210444707 17.573652206017783 0 -1 0
242 2 8.449589675190639 12.55375977989562 15.72700844052738 0 0 0
569 2 5.242641961652449 11.262958448513585 18.977131422615283 0 0 0
343 2 8.58805904091615 11.793987067735557 18.36975671212903 0 0 0
379 1 8.555769589097768 10.733022030378685 19.65720144334519 0 0 0
502 2 7.6528974427618115 11.357530522991135 20.87931880041623 0 0 0
213 2 9.043168331948605 14.359431058677028 17.615678225703093 0 0 0
537 2 0.1844683208689975 12.353854573203094 21.320770534071933 0 -1 0
499 1 0.09640745167713453 13.452202854609405 22.474138810457205 0 0 0
419 2 2.3565759949494964 12.563509955967028 25.649289973297044 0 -1 0
550 1 3.8960654153266594 13.086699504414144 25.783859520010903 0 -1 0
554 1 1.1794634651999982 11.86474271836846 24.823823649178607 0 -1 0
557 2 4.602636796683775 11.839857962292069 26.55209017822359 0 -1 0
302 2 3.703127147197987 14.379362777557514 26.71044773749769 0 -1 0
526 2 1.6255820569709551 10.634488683923962 23.748814829229524 0 0 0
549 2 4.480270786566663 13.563782974705871 24.290415901533773 0 -1 0
619 2 0.45409577020000746 12.969552157195478 23.97089561890783 0 0 0
411 2 6.747011584380324 14.974979070469704 24.303655977849772 0 -1 0
623 2 6.8481290688890475 10.371520593732566 23.290879300195115 0 0 0
511 2 6.424469993428607 12.98583857618667 22.578439297913015 0 0 0
121 1 5.63135918750741 14.236838284088378 23.292914884148853 0 0 -1
512 1 5.6017358136945985 10.54776946528879 26.81216512549399 0 0 0
474 2 9.107293475558931 10.455101267706494 24.33919288378922 0 0 0
546 2 6.285693363025193 10.479182854238871 28.305609643163685 0 -1 0
407 2 6.863029236736687 10.970239724073645 25.81403135614402 0 -1 0
746 1 7.581482309103617 10.075388481406087 24.678851604042386 0 0 0
13 2 1.9482823015857513 17.411817441677805 5.134537985921503 0 -1 0
15 1 3.466424571622448 17.2581405658723 4.5004790052122745 0 -1 0
186 2 3.4687506022947585 17.537683495668198 2.901107295634138 0 -1 0
672 1 4.011676994316246 18.524157040020985 1.7444356695055736 0 -1 1
675 1 0.390620604241006 17.173019475438686 4.71918738384654 0 -1 1
676 2 3.959619959480851 15.683473920596374 4.678384064715513 0 -1 1
703 2 2.8714486890646294 19.461652689802026 1.148319001259715 0 -1 1
53 2 4.417961922015383 18.383992903402234 5.219718608831714 0 -1 0
10 2 0.19085735548774296 15.808066899073461 3.813829064455593 0 -1 0
682 2 4.352492206434906 17.57147859740843 0.4582353179148338 0 -1 1
545 2 0.08739472033194641 18.319493673985335 3.642916240555537 0 -1 1
688 1 9.902662559056399 17.392119958466704 1.6523363438321061 0 -1 1
686 2 9.97273587755396 18.83458686061401 0.8927758760442911 0 -1 1
24 2 8.635845053552643 15.044264329988604 3.786192146093927 0 0 0
92 2 8.921987127075315 18.09180662896532 7.257343045925575 0 -1 1
156 1 4.947475780768842 18.23389574179803 6.811737755834867 0 -1 0
94 2 6.536689266022098 18.93632799049798 6.792951764826467 0 -1 0
25 2 8.566818356439253 19.716033245075643 5.18020111404203 0 -1 0
717 1 7.671007516800177 16.402753286293414 3.5819790251809165 0 -1 1
748 2 7.509412980768371 17.28246711125471 4.98128731232452 0 -1 1
56 2 5.340507733003416 19.328143057903958 2.429489662097087 0 -1 0
610 2 8.584643705441513 17.197658064651186 2.5181664724855053 0 -1 1
687 1 7.929633523399123 18.4845099174698 6.053709261054273 0 -1 1
17 2 6.184003233110987 15.929808961443772 3.129326841619914 0 -1 0
203 2 3.6568757932128593 18.997275723930812 7.436341869907697 1 -1 0
16 2 5.135802693801939 16.736990068043816 7.410171294735661 0 -1 0
20 1 4.585770090830201 18.07260672324621 11.18465706255502 0 -1 0
338 2 3.6185550845459833 18.320343165338592 9.896269976783191 0 -1 0
341 2 4.009490056685243 19.129517443503342 12.356578146138208 0 -1 0
2 2 1.4972354342588068 16.939625465158965 12.843997127207064 0 -1 0
74 1 1.9308445250359851 17.075541956063116 14.419830470168492 1 -1 0
188 1 3.0177226047987227 19.512166611960428 8.845764321520752 0 -1 0
11 1 0.6460116181201796 16.05126300015045 11.8422522694107 0 -1 0
489 2 1.2854435433513298 18.513880031428293 14.723250268275702 1 0 0
42 2 4.74568157864257 16.389890920976807 11.573480228434454 0 -1 0
159 2 0.5896999300230059 15.451938046355234 8.177250145841024 0 -1 0
377 2 3.5862330391251485 16.88977996082084 14.625552660461395 0 0 0
71 2 1.6839727320851776 15.806982361791228 10.570109385142846 1 -1 0
162 2 1.409192442242677 19.56441088929867 8.830698744051718 0 -1 0
264 2 3.319137800749943 15.343399334335313 8.642945617693401 0 -1 0
23 1 5.877246722420528 15.222970495574113 11.190358406847386 0 -1 0
371 1 4.8813777274389185 15.261662000585536 8.193125204360138 0 0 0
183 2 7.999902428090549 19.879280318591896 9.66221628848398 0 -1 0
462 2 8.839620362256642 15.587232043690229 13.9966522544363 0 0 0
190 2 8.146256808623919 17.13616225803253 9.840923649203932 0 -1 0
296 2 6.848520924851269 19.608351148032998 13.859942446552441 0 -1 0
197 2 8.76154557946574 18.857560157409022 11.890402530584593 1 -1 0
249 1 7.212954918673464 15.720439374616426 13.70231229515612 0 0 0
246 2 6.181621163487212 18.36960336363742 10.994273100662927 0 0 0
231 2 6.407696924619033 16.85618243420244 14.568523549181176 0 0 0
227 2 7.133741819202415 15.873748625390586 12.090562720416962 1 0 0
61 1 9.42824189938706 16.07570398489203 9.84775934975293 0 -1 0
187 1 7.660242622356308 18.532584488064415 10.497472642254207 0 -1 0
124 2 5.776301984430097 15.150548273147265 9.556415848293513 0 0 0
767 1 1.7994291352288683 15.007466929656603 9.151217664627895 0 0 1
420 1 2.871488301886704 17.88403974576027 21.05958322260376 0 -1 0
611 2 1.3091599727442491 17.689768257541377 17.667504310479615 0 -1 0
324 2 2.5583203743743606 16.345251634960736 20.66695629224653 1 -1 0
444 2 2.3670921592101752 18.88751846122615 19.8775020582369 0 -1 0
483 1 2.4579311066787493 18.708588498224753 18.253265779817998 1 0 0
397 1 1.1295739962843563 16.152968996385333 17.089305831191677 0 0 0
267 2 3.891610890735766 17.908905133466373 18.23415815091203 0 -1 0
680 2 4.4615791567033884 17.874338557330493 21.61440081751864 0 -1 0
176 2 1.1767915760031114 16.08845563688815 15.44430015754074 0 -1 0
642 1 9.971949530050207 15.628949033732415 17.31558529646439 0 0 0
410 2 2.392286124016091 15.326672591431798 17.670449981570926 0 -1 0
427 2 0.2647924195250816 15.512048458995755 20.03615727077263 1 -1 0
422 2 2.1214020947351644 18.441221067742816 22.440382538597632 0 0 0
374 2 5.294275088428283 16.399683280085718 16.86380725622951 0 0 0
629 2 6.999784008407389 17.42751256412088 21.92236342591392 0 -1 0
252 1 5.039128765847644 17.14553237047011 15.420457803643215 0 0 0
649 2 6.681454945231415 18.129740747352223 18.237465311317234 0 0 0
266 1 5.354187803258549 17.218995050026187 18.254494953393564 0 -1 0
390 2 9.140975392375426 17.05979019842487 17.55974873834814 0 0 0
479 1 8.501671778580514 18.033428666997388 21.564827577416025 0 0 0
238 1 5.626670808850289 16.714188368217986 21.286855311704898 0 0 0
276 1 8.30066644622374 18.17582406959815 18.4215480171681 0 -1 0
464 2 8.794865451365258 17.956791945835985 19.958240381688857 0 0 0
500 2 5.611008852446959 16.3506064401677 19.676028945021553 0 0 0
200 2 8.924706066743294 19.55918937687373 22.07457505346345 0 -1 0
278 2 8.605540809723145 19.747652865504076 17.929712058754383 0 -1 0
274 2 5.1185117039508885 18.793882871310256 15.71816920239806 0 -1 0
503 2 5.20568774440072 15.40031626722498 22.172831778625643 0 0 0
520 1 1.6322394514294405 15.027147833448648 20.67513232925451 1 0 0
506 2 9.553062230933772 17.183265435956905 22.46701495046202 0 0 0
561 2 3.862790729480686 16.757862849089882 27.949654652877527 0 -1 0
681 1 3.5087832059977773 16.024445001040775 26.476652359232535 0 -1 0
49 2 2.0436677906043563 16.570442265665363 25.90095693124446 0 -1 -1
528 1 0.8409241475792941 16.73879715150102 26.99311363105794 0 0 0
332 2 0.8079591060419169 17.97414205089342 28.103943426171256 0 -1 0
288 2 4.5949262929364085 16.45523195004482 25.34281005728117 0 -1 0
669 1 0.7861380303182429 19.5835031450318 28.499991617021713 0 -1 0
555 1 4.595634282662193 16.405128522602148 29.370819958860416 0 -1 0
538 1 0.5287969553772129 18.81803869349834 22.56891514029885 0 0 0
577 2 0.7731471455687994 15.270040458051678 27.749970594580603 0 -1 0
706 2 0.042046323899804575 18.549508787711172 24.14432260243559 0 -1 0
559 1 7.1055888553544495 16.697280567386827 27.98706972348381 0 -1 0
443 1 6.243588723663269 16.24561670959489 25.254330439836565 0 -1 0
513 2 6.824141562289946 15.779828154857247 26.713293774685933 0 0 0
715 2 6.7335041075400515 18.26104608804602 27.479822140608306 0 -1 0
580 2 8.674642193302095 16.653444443689146 28.48513057572133 0 -1 0
583 2 6.973595601893935 17.66349184569058 24.858119495898464 0 -1 0
584 2 8.583282317682897 19.372110869949736 25.834382954982903 0 -1 0
552 2 6.17760184964709 16.211266689877892 29.245351448293487 0 -1 0
589 1 7.063188837687107 18.863831757395722 26.009627243040608 0 -1 0
51 2 3.54195685610284 15.208058201577963 29.896105910669135 0 -1 -1
776 2 12.702422572508809 3.075053619886889 3.0262076210085587 -1 0 1
597 1 12.130531127287567 2.6845648578973447 1.4826636374274254 0 0 1
99 2 11.23980947795879 1.2587350548329255 1.4175673151718566 0 0 0
721 2 11.166962541756787 4.030503975589107 1.3642717599043328 0 0 1
65 1 11.756115146588552 4.5031868653770735 2.924734112882407 0 0 0
230 2 10.567736246710401 3.976693666408162 6.466276980285615 0 0 0
491 2 13.247924114027153 2.7585888430957572 0.3154146182647903 0 0 1
102 2 10.532844624865206 4.451705532046828 3.984273973348573 0 0 0
565 1 14.555249542004082 3.667167281994952 0.16194616349324947 0 0 1
79 2 19.708442477813257 3.407040776690691 4.179718459928269 -1 0 0
78 2 19.636624545753783 0.40745491211146856 2.3596195952421595 -1 0 0
73 1 18.156529863407602 0.7001039116212503 6.346818414819827 0 0 0
398 1 16.00903744771855 1.2506248658200556 0.7592872243291129 -1 1 1
616 1 18.724486171828058 3.5899059689357604 5.493860815914911 -1 0 1
432 2 15.304328348142873 0.647149631241307 2.0643011156887243 -1 0 1
704 2 17.957545629745727 2.2349498846161184 6.094611870349493 -1 0 1
86 2 17.320561037771558 4.087988721095518 4.484660783378724 -1 0 0
8 2 17.504548081684614 0.5792520654313487 0.8750208729700055 -1 0 0
402 2 15.950664219935142 2.8284780946460337 0.6280577601888314 -1 0 1
39 1 19.106921401648 0.8207572089861276 0.8943986532918233 -1 0 0
630 2 19.57319699557947 2.340449125513025 0.7022950497351875 0 0 1
631 2 14.541176440540438 4.919273086202281 1.1893271970541524 -1 0 1
81 2 18.875599763309882 0.15035296593862396 4.976928535099118 -1 0 0
36 2 18.718600832692243 4.933520725225355 6.465599798182822 -1 0 0
100 2 16.64694605686496 0.06556750357340047 6.644214369617487 0 0 0
305 1 13.599244598871145 3.297066620964486 13.249848508005336 0 0 0
447 2 12.891059092019708 1.7940328278301507 13.469478750301626 0 0 0
63 2 11.162817050927625 3.924406593006492 10.114558000299397 0 0 0
346 2 12.819819623558608 4.292893375433665 12.206677247809683 0 0 0
306 2 13.308829499442572 4.030070475360279 14.672209068869254 0 0 0
194 1 12.328388087954345 4.901933341996017 10.812225722268996 0 0 0
313 2 10.722074587461211 2.966002218790072 14.725374650544 0 0 0
290 1 13.71991376392158 0.4391785421438589 13.382410254429136 0 0 0
157 2 19.322756478558848 0.14287795245924287 10.391379217946577 -1 0 0
38 2 19.013429431106026 0.30508297214389973 7.696968101118921 -1 0 0
196 2 14.901153303150634 0.5004233966867456 14.501821609687394 0 0 0
146 2 15.061169692933554 2.855929082692728 12.678994406148593 -1 0 0
312 1 18.412028784757627 3.2274844646338474 14.489881758148297 0 0 0
64 2 18.23533436943125 3.713055178222352 8.57195991331341 0 0 0
323 1 16.601537676430937 2.432010082990984 12.207057548944784 0 0 0
456 2 16.644527414879555 2.824130114785947 10.620215297402108 0 0 0
214 2 18.71376124469686 4.330910023021515 11.097164140276385 -1 0 0
355 2 17.609130215476803 3.326603067603751 13.094426194628506 0 0 0
228 2 17.218148057661164 0.8730387624745334 12.210111750828917 0 0 0
75 1 17.453585527844066 4.081317118831571 9.971436822293631 0 0 0
514 2 14.007463780150003 0.08761834470692376 11.624935609954282 0 1 0
185 1 19.839467113430093 3.387151882834245 8.175639319646422 -1 0 0