# Converted from POSCAR to lammps format

4 atoms
5 atom types

0.000000  15.000000000000   xlo xhi
0.000000  15.000000000000   ylo yhi
0.000000  15.000000000000   zlo zhi

0.000000000000  0.000000000000  0.000000000000   xy xz yz

Atoms

   1  3     7.500000000000 7.500000000000 7.500000000000
   2  4     7.500000000000 7.500000000000 8.592173562720
   3  4     7.027885564113 6.980651647312 6.659913322762
   4  5     8.719419754146 8.014758741125 7.172279615037
