(written by ASE)

2989 atoms
5 atom types

0.0                      20  xlo xhi
0.0                      20  ylo yhi
0.0                     120  zlo zhi

Atoms # atomic

     1   3      1.8242364098601818      1.3564450846271623      57.114278178059322
     2   3      2.2230497915612113      7.1646174663100393      57.125156205511196
     3   3      2.6463862042263404      5.7598821843808299      57.402477874151145
     4   3      1.7458557811282693      8.1440287580151747      57.946150479108759
     5   3      9.1486687208262705      3.5515714619630478      57.330346782211272
     6   3      2.3283482925639518      5.0082587096785343      58.436852428970326
     7   3       1.049490669562539      9.0254904536916456      58.575088341691959
     8   3     0.38080122259321503      9.4534434880117679      59.751993756091771
     9   3      1.9164478211843294      4.3028736810787596      59.462025241912585
    10   3      8.3648744802154003      8.8495744161918921      60.859866937770256
    11   3      1.2430515874739303      3.1573037667104842       60.11214469156679
    12   3      7.1390943190316536      2.7997373526043927       60.34664910649164
    13   3      2.1631785105830943      3.9667735521487257      60.843035369607129
    14   3      4.2625341760002877     0.49434646020144279      64.794619945492073
    15   3      6.5466644345580001       2.527883154471013      65.602117613621147
    16   3      3.0044937077734994      6.3104027509567135      64.951153232230041
    17   3      9.1870808685529894      9.0467424314561082      66.560930871166505
    18   3      5.5571399648224107      8.6948271078450912      65.255255049912307
    19   3      2.9709489957763724      7.7919679157952979      65.540594774801434
    20   3      6.1668994605330418      5.1010166830622774      61.824959920587297
    21   3      6.9035209386955421      5.0201610893048354      65.547680547247097
    22   3      2.0158112305694744      9.5538139930280845      64.162124502187382
    23   3      6.9509546788115495      8.7570182449943932      65.104465554578567
    24   3      5.2964595534876748     0.96927497066771939      67.107502204978502
    25   3      0.9911950069839458      9.0841133144999873      65.002378232661783
    26   3      1.3011207732205285       1.373850464188028      63.443990804550687
    27   3      2.5036967827535768      3.5254137213438597      64.458573204331444
    28   3      3.0228662394095607      1.0290607535563912      64.423658924426661
    29   3      2.9175464723567486      5.8386923620683309      63.558289836464922
    30   3      7.4162713578271644      5.9367873316720843      64.768744662855354
    31   3       7.226206300814396      1.5540805007475778      64.809048164747978
    32   3      3.2530518863020652      8.8689117391276806      64.564609546262218
    33   3      7.5012143150589683      2.0154590685584886      63.516633522166238
    34   3      7.7112443317811286      8.9372361448612754      63.908829036259107
    35   3      8.1072902065442261      6.5044749257525911       63.79863902158295
    36   3      6.7755552359555251      3.7357503821986815      64.898755757538069
    37   3      8.2134615427087336      7.8510562450380617      63.228818835061347
    38   3      7.2228685569232498      3.4091654736203281      63.506616724808254
    39   3      2.7179199674194661        6.70267352909769       62.51158923043171
    40   3       2.801549491415996      4.4242278588646293      63.301805320962735
    41   3      2.8292767015681637      3.8107223542810842      61.996787323331596
    42   3      4.6266437399096292      8.8449523322195667      64.200777424814021
    43   3      7.1423248592725894      4.0216098548226045      62.217451441332244
    44   3      2.1684756028745222      2.1973590925231514      64.319950207633951
    45   3      8.8625037162090337      7.9700514722233118      61.926890524214855
    46   3      2.2402904473160907     0.36259382251991545      63.387640441716229
    47   3      7.9894505252623924      7.4398048865363142      67.107082984955269
    48   3       8.104588233419614     0.96494493141530013      62.801554152739648
    49   3      7.8827851660299784      8.5531749316291865      66.148861899015145
    50   3       2.714623613819644      5.4199551823222416      65.894077190337981
    51   3      1.9479073869266754      4.0655545996354663      67.086000805611661
    52   3      6.7121567704112461      5.2584311859453567      66.951974773573738
    53   3      3.8680127416802321       7.914324108899522      66.828999820093273
    54   3      5.8304317788291362      2.2062397633417765      66.803955625750831
    55   3     0.80855797774356031      7.4488516075714024      66.776548211564574
    56   3      4.7683893737450394     0.10570803704825238      66.117419073470941
    57   3      4.9672750921684328      8.7239115991453744        66.5667796538674
    58   3      7.7030951205361697     0.23775514980178158      64.897081604699949
    59   3      2.5592268775750067      4.0448189715788043      65.777703779569705
    60   3      1.5436251470161437      8.1119275914950517      65.786930330514764
    61   3      7.9011691884129984      3.5081751791608928      61.192676951109476
    62   3      1.7583466103221723     0.31054322047183619      69.635192916201277
    63   3      7.5668090353545292      2.5883940216553443      71.216459316180703
    64   3      5.3956883346058317     0.35082000884449371       68.44286632964166
    65   3     0.58798214150640626      2.5307509868425959      70.480569834555283
    66   3      2.4809493410286012      7.0897743738836185      72.257557394064463
    67   3      9.1746804530977109      8.0057879492310153      67.530003194925385
    68   3      6.0050604802272245      4.4235274018158677      67.850327202325914
    69   3      1.6539158327506909      2.8761394108780243      71.474221098146359
    70   3      1.9637878922309451      7.6139414693421958      70.003602754160312
    71   3      1.5109462561308455      6.5398608276282264        67.7168051149104
    72   3     0.66235404867813008      7.9078431599169896      70.399321860513624
    73   3      5.3630316987312305      9.6386866097485679      67.591210406521256
    74   3     0.65605978796776865      1.3425041022489406      69.870731863295163
    75   3      9.5143744085884236      2.3447467844968592      69.611782129604947
    76   3       5.599836033313272      8.9047216368700628      68.797011225877867
    77   3      6.5859746265363039      9.8092623019723391      70.818347675089115
    78   3      4.5675722523723792      8.1179406395981992      69.266302458839235
    79   3      8.1850141686921454      5.9502137349612374      68.874154690496013
    80   3      5.3246645089099287      4.7908688365253651      69.015904734505227
    81   3       6.111177668509975      1.0622055433818884      69.358022877034088
    82   3      9.1857987641180454      6.5477639129988408      69.476577871145835
    83   3      7.1069237267385121      2.1012742323819946      68.855128818194487
    84   3       8.107358139525692      2.5357532259657631      69.816489429568065
    85   3      4.2483717721138863      7.9663506933112913      70.661103127429385
    86   3      2.3012132727238188      7.2625811945703322      68.677146244470805
    87   3      3.5683397017748431      7.7037611342585199       68.23502167020753
    88   3      2.9219807861184419      7.5394664231246455      71.013945076182807
    89   3      8.1845099409776161      3.3526918984436627      72.164635120305775
    90   3      6.2546492096694228      3.0217068380169287       67.86075230313827
    91   3      6.7255304873729411      9.4112817352308156      69.498250407759414
    92   3     0.17485194354868144      7.4454807244039545      71.620485132551096
    93   3      7.5207645546962354      6.2484253621125152      67.653423910327959
    94   3      9.7470836861958325      7.7353843851405735      68.758943246661119
    95   3      5.7045003482002068     0.96931018731339369      70.738596424242786
    96   3      5.1506226609479757      8.0317587654100961      71.786818474990412
    97   3      9.1391216555131916      4.3679316117019411      71.885787295215749
    98   3      6.1915749795899044      8.9773444647405292      71.878524291139186
    99   3      6.4293456953223904      1.8812426489427514      71.460133068060628
   100   3      9.9509154698281712      4.6207441893671097      70.813898222622896
   101   3      2.1107451514865088      5.4066197685628161      67.241879243996522
   102   3      4.3627724221325774     0.94553272192120508      75.518285119933978
   103   3      9.2663715537930464      3.4596967454708061      73.021298775999782
   104   3      1.2866781097852868      2.6409770678079063      76.508022273286883
   105   3      8.3356801923690824      3.5787041749104702       75.96578391647742
   106   3      3.9128788339523357      5.5435449616696726      73.936773224170622
   107   3      3.1937311649879763      7.7723906426884737      75.800016164680812
   108   3      7.9126633193732605      2.1807186134019569      75.593605758373769
   109   3      1.5111901836189778      8.2586664997129553      73.933020780830276
   110   3      2.7166768883829895      7.6906896417847248      74.478244409508179
   111   3      5.7940920802542974     0.89341896211666327      75.654346844004721
   112   3      5.6652949393229548      7.0764246970150957      74.031969755635799
   113   3      3.4479047880207903      6.8609935119213947      73.361393333005054
   114   3      1.2052483876155731      7.5198157763126439      72.695078709997404
   115   3      2.5341159324545459      2.8622552177888276      75.889874180518959
   116   3      6.9773710639457187      7.4729122913142207      74.149892822189997
   117   3      4.8272207516285119      7.4324833418158898      73.003546284467802
   118   3      9.5240835331026972      4.2561439029816874      76.313671977774902
   119   3       5.163469581229613      4.8068238537931682      77.151668751961068
   120   3      6.5394761188756121      1.8580558322003227      76.158855430067177
   121   3      3.3875272892656239      4.3100066583855856      73.979705745318654
   122   3      5.1337114973377354      5.7874143623676257      74.657202178161953
   123   3      6.4164850282327635      2.5308139390687008      77.473477266216747
   124   3      4.8469093251582702      5.8327161406167729      76.151607067104379
   125   3      2.5676357788286164      3.9465918822660493      75.023491904545494
   126   3      6.8887006127040218      9.5554577720640737       73.04629091274083
   127   3      7.2212492316200949      8.8306801524071883      74.156301043062371
   128   3      2.5128565283552136      8.8210085591053815      76.776746263555538
   129   3     0.94664489406949492      9.4450968843856469       74.52071557614218
   130   3      3.6019470657502266      1.9132965210647657      76.364684775589893
   131   3      7.5865629794183143      4.3828391233121833      76.901583111411128
   132   3      3.6886245291129161      6.6039251633749609      76.455374386276588
   133   3      6.2607145754817495      3.9664525870026845      77.261998362257785
   134   3      2.8115613994407602      4.9426738333752684      77.821455140622987
   135   3     0.60843108007533109      3.5144036811662693      77.519234602958107
   136   3     0.54116443617802901      1.4374681264631126       75.97938914237298
   137   3      3.0577971535409731      6.3384897335566759      77.682088046305836
   138   3      3.5761573479853253      1.5638075615743152      77.697081899384727
   139   3      8.8366523149745984      4.8825054387157794      77.428500176331482
   140   3      4.1370139452704784       4.461460955211372      78.069208564952277
   141   3       9.466912158784158      8.6394842891887773       78.24063458327214
   142   3       3.674060512013777      0.1646086911974507      78.034924096817974
   143   3      3.1078295411032903      8.6187688750869818      78.201779652278759
   144   3      1.6169164384248258      4.4011674630236683      78.270128088519641
   145   3      3.5028029489895069    0.088905622286002739       79.46910870254051
   146   3      1.3286554708225315      4.8211834775755325      79.649394108174192
   147   3      8.6138821292947227      7.1814446916517678      83.280629636999038
   148   3      3.6192067874220406      9.7160239477835972      78.664305951969737
   149   3      3.0654084069100129      4.0402350671170737      82.924352905796695
   150   3      8.5182324296364307      4.9982405484601884      82.059990646918351
   151   3      9.4950438081342412      8.9732045955685464       81.90692370321463
   152   3      8.9465816906659494      6.8558887241863653      80.837289096516031
   153   3      3.7834973748141132      2.0261133749394684      81.390405463877386
   154   3      3.5715519804458111      3.4150872484111834      81.612319331287125
   155   3      4.0707698796061731      1.2411335990669841      82.601017324583111
   156   3      9.4156048045079324      8.1831958765693322      80.707949260232596
   157   3       8.619428702367232      4.6216426023852577      80.735299662192432
   158   3      8.6987443557321562      6.4368758514116315      82.107551539629469
   159   3      8.2280058382405894      4.3536859719645316      83.243976352652552
   160   3      3.6520836285361846      2.2699025329145885      78.927738874653627
   161   3      4.0436998398630388      3.6462549890689582      79.195353754870496
   162   3      3.0499485745812716      7.2951934965669318      78.762752940901208
   163   3      8.9136076163937048      5.7024361879057208      79.901664306394878
   164   3      6.7472042709892408      1.9918797278327338       78.70764400435985
   165   3      3.5115915618521543      4.2306471957292624      80.454347706474138
   166   3      2.6671401414603055      5.3864254283110498      80.242222908560194
   167   3      6.0837922956230948      9.7213170743444444      80.245372049119226
   168   3       3.009716336946211      6.6685250740256485      80.056037158257794
   169   3      9.3709886645857825      5.5539963110995796      78.481887200246916
   170   3      3.5706341103945576      1.4724175783335671      80.100138627684998
   171   3      9.2847274332722876      8.4669143592852425      83.232616515128313
   172   3      9.9403071259754725      8.7030583075666392       79.53922939903677
   173   3      4.8430887710459913      1.8058963300451258      83.664099822233069
   174   3       8.849639811461433      3.0532750507477422      83.782892437223921
   175   3       7.572607075307106       5.214716845921509      84.078127600258853
   176   3      4.8566274163971945      5.1383468085075981      86.230965904678754
   177   3      3.8969508697853805      4.9894323334020605      85.141800548280287
   178   3     0.98319855895228536      8.6156529847717884      86.927695532371331
   179   3      6.4053463541783628      1.9570901740598279      86.698548703899448
   180   3      4.5591991354393695      4.0696955392666405      87.244816072866172
   181   3      7.8766738321435845      6.5132843187366953      84.377979725234923
   182   3      8.5906796351428181      2.8400883372778263      85.300736697477959
   183   3      5.2529443927521315      1.4586442470829328      89.515827543992543
   184   3      3.3393484000619877      3.0147561525890509      88.954285335453363
   185   3      9.2965241400817167      3.3962907068224899      86.264563510574618
   186   3      3.7877637090617271     0.62002320437670022      87.841843212514235
   187   3      8.3103990319346295      3.6840922227771422      88.957682974739896
   188   3      7.4516901228649122      2.6028787901913759      88.924526383056659
   189   3      7.7311475934623886      5.0499457803078176      89.103631185675198
   190   3      4.3586178718446549      1.9812416462199258      88.306744917921577
   191   3      2.3837240701573799        5.09431020512449      88.390414678223991
   192   3      4.0661721666006905       4.165552486490343      84.020079801023883
   193   3      5.0467011653333156      3.1306195979645284      84.120362742158733
   194   3      9.7680137265939351      3.6073878391551188      88.675061729862989
   195   3      6.2648602411215126      3.3669557523701354      84.745969001904967
   196   3      3.4958760623301743      4.1973205041747184      88.199922956540121
   197   3      7.1406263468017261       2.564937579681219      85.530388623699963
   198   3      7.4598152392773507      1.5541459711784567      87.870855930219363
   199   3      5.1648882377627805      2.8226664890803925      87.399666544635863
   200   3      5.5953938055087074     0.81916713105012084      86.093008904181289
   201   3      6.1994358753676027      5.5597132045518807      85.907886955394787
   202   3      8.1573373336383668      7.2352426169419548       86.77367847175239
   203   3       9.918713102332104      9.0976729427208163      84.247125127894932
   204   3       8.867720343717437      7.1737974054675675      87.921419592732605
   205   3       6.704119121978227      4.6481460102610876      84.995587342375302
   206   3      8.6208399697335878      6.1979095287202135      88.953465612717011
   207   3      7.3749862770613994      6.6821529658484247      85.775451375841925
   208   3      5.1010163527675703     0.85099844134241776      84.712014596822769
   209   3      2.4970490973443242     0.77606233628719679      87.005380796251629
   210   3      1.7702778977851796      4.5088430397058197      89.717198753080311
   211   3      2.2010020952199949       3.167201926056225       89.86232415725668
   212   3      6.3804602299510123       2.306478652578984      89.850488577551332
   213   3      7.2047753609182896      7.8499888632137393      90.655543547748351
   214   3      6.4375005471054259      6.6032484164220424      90.573744415962537
   215   3      4.3415362782440896      6.8867227874063408      94.861244962325202
   216   3     0.16871016464639155       3.423145367669322      93.080685596592303
   217   3      7.1374856050380986      2.5503541097272659      95.426106810174232
   218   3      4.6528253874043859     0.58792253189897681      92.571389211492502
   219   3      4.7609557683047381     0.29682193175830562      89.993755834303869
   220   3      5.8315560962659605      2.8609456555127495      95.182660726689264
   221   3      1.8251645743099023     0.89544962557436492      90.924781526952955
   222   3      1.6739617427295805      2.2455704972133579      90.929885133787607
   223   3      5.5352143019652713      6.4950090008959416      91.702588878030681
   224   3      2.5718610465761627      9.3361352029849378      91.647733706776606
   225   3      2.5935838437829912      8.2910314766462694      90.705080556347127
   226   3      4.7934330928649205      7.9339379699564683      94.181854897596196
   227   3      7.8830764580698096      6.5488055612213314      93.288587699557922
   228   3         6.5594160455171      2.3128642995067654      92.338936563114856
   229   3      8.8452848362355994      6.9997820575544676      92.380882625280066
   230   3      6.9334391272733731      9.2020425759263595       90.95443417522263
   231   3      3.6269892550305811       2.218940421774982      94.655707628898412
   232   3      8.0749353053634838      2.0782053240569653      94.262564985989997
   233   3      7.4236716801252722        5.30469649569313      92.856218276456474
   234   3      5.4110143959469212       1.680789440775736      92.997481260376176
   235   3      3.9095423575868478      7.8769589925105876      90.525095185285437
   236   3      7.8696787285710945      2.5542203981027107      92.826248377525133
   237   3     0.65232622330961743      4.0257396357346007      94.365204583245315
   238   3      2.8813603363426128       1.203827805545409      93.934559655294663
   239   3      8.8234922591883009      3.4060590897826803      92.076033904776693
   240   3      2.7832477528291206      3.2777970778359999      94.203030293357443
   241   3      6.0099804926327547      5.1669406481210274      92.410605235936515
   242   3      4.4652083730723646       7.358184109791023      91.716549710657688
   243   3      4.9957294304930961      2.2261014734202673      94.308471559372308
   244   3      8.5372596595800108      7.4699318881254664      91.012779447265615
   245   3      2.1876310920951205      2.3064150207920644      93.270444395893009
   246   3      1.2109732646268963      2.7063292825524461      92.317273496188392
   247   3      3.3957128172767841      9.2982529930808759      92.716691222712655
   248   3      6.2070143718359985      2.9975482110739611      91.059015281137135
   249   3      2.0004387480074195      4.2678258226745154      94.817683521262353
   250   3      5.1324002504049249      9.1698109955722522        95.0314393606415
   251   3      8.4946669110609552      4.7752456764153077      92.001538479242328
   252   3      6.9914188255804488      9.6611045748886468       92.34369879488284
   253   3      4.2494330375704621      8.2274850289787178       92.87273274186559
   254   3      9.2900861485838799      5.9055190564506983      91.539677647323856
   255   3      6.1925436902196163      4.3682407711738236      91.059303451139357
   256   3      6.4736030975510026      9.5876336079032107      94.950734376006324
   257   3      9.3819230557244246      6.5680396669403551      90.156422996592568
   258   3      6.7238800707364534      5.2804181506391537      90.044564437705674
   259   3      6.8126323631845223      9.9421175808474214      93.668433256030269
   260   3      3.6190062054063192    0.083844439648043334      93.559548940569073
   261   3      1.1892154379274862      1.3032435473567863      103.54773367205118
   262   3      2.1230044930852179      1.7261699427619501       102.4994370647746
   263   3     0.53092462523378847      4.4156255633590549      103.08375321483885
   264   3     0.47110766049452835      3.5537621868406344      102.02476098148745
   265   3      1.7718925413577538      2.9270155015205805      101.73747401417897
   266   3      3.0937594352783613     0.75893586894042708      102.06271972641365
   267   3      1.6123111135511974     0.50283315599170997      104.83564155979988
   268   3       2.217728387365733      4.6250242237757142      96.190608897796508
   269   3      3.7918038823515454      3.5568243068127536      100.37629559048688
   270   3       5.816605235195401     0.80207585626751954      98.951546109015879
   271   3      5.7002046910979365      2.1249779942494751      99.589277793866714
   272   3      6.2668248217268285      3.2193720854302681      98.841519572878866
   273   3      4.6076558223409707      2.3831990032976673      100.52602310792795
   274   3      5.5719714179739865      4.4832858251650354      98.955617201883243
   275   3      2.3941051356018779      3.4137285291824737      100.60181332397866
   276   3       3.866092560810559      1.1929524766524031      100.88405085881124
   277   3       1.883914145838087      4.1373748353554864      98.392036875577261
   278   3     0.63132336425393942      2.1385741814018715      99.216771973399545
   279   3      3.2087726366249192      4.5918176124858849      98.223137921548101
   280   3      7.2146073575752379      3.0933342155778387      97.848924421485094
   281   3     0.93009828113423521     0.72330157924447291      99.082908287543333
   282   3       4.256885755512223      4.4870765143052758      99.290338094422864
   283   3      3.4695568147302041     0.59804543710247793       99.65735718822684
   284   3      1.1950047060415465      4.2213232364609681      97.121682727033829
   285   3      1.6331281571291332       3.233950375428996      99.441484498929611
   286   3      3.2586504546274195      4.9467372032106134      96.923732061811933
   287   3      7.5067840586526788      2.8266000271482405      96.713162054946451
   288   3    0.041115004935047494      3.5980122860603392      96.760815346189418
   289   3      2.1525652748283224     0.11302778537289981      99.492858213853452
   290   3      4.4151828240434279      9.7467087178583931      98.158943409060782
   291   3      3.0163164893548644      19.970862581298352      55.887903636608172
   292   3      7.1242956767777095      12.227837552331417      56.719934742096555
   293   3      7.2386055793386861      12.370745644777958      58.105627554841746
   294   3      7.0987705344330543      11.234625427725941      58.908580010008549
   295   3      7.5086424422899656      13.684607970512864      58.664496285255794
   296   3      7.1545981519780799      11.038358233962677      60.247448038906548
   297   3      7.8540975504464203      10.702207147432564      62.410552977322659
   298   3       9.348167230372793      15.864075655666985      61.748849811487304
   299   3       6.460512118802062      14.157984721128614      65.129886055771067
   300   3      5.6769838428868189      18.108199084334306      65.133240403118805
   301   3      8.3129212537852553      10.200969789712799      63.633620452353007
   302   3      1.9811021920162994       17.17686960344783      61.629376170170168
   303   3      6.7075951078700644      12.091750140974575      61.106301882087692
   304   3      5.7032354581857714      16.096737813456144      66.462814186523502
   305   3      4.2358656079616361       12.82001260481173      66.393899181605093
   306   3      1.1853708896153603      14.370155733781651      62.285666084819894
   307   3      4.7388307160615906      13.938373097898049      66.969820415902745
   308   3      2.0221242392776375       19.25304032550892      62.654749129745966
   309   3      1.6651989247479961      10.726183790766964      63.460592138665184
   310   3      7.3713129259287324        12.0382167416627      62.305507293782981
   311   3      7.2118486074136623      15.008369994508403      64.336197156803976
   312   3      6.6942450049125402      12.826894624937291      64.713049463307613
   313   3      7.6638475876000651      12.904635808600197      63.496096989413076
   314   3      7.7567498207843322      14.374715131394979      63.231084362060152
   315   3      5.7147529655034868      18.797532178070171      63.886009061315086
   316   3      8.9841916678626728      14.930183922474507      62.666957225833471
   317   3      5.0704392183699039      18.778229039158571      66.338015145832642
   318   3       6.971651118402451      18.755025271792835      63.023788572950131
   319   3      9.0200390810401121      12.463978788282301      63.978070646125957
   320   3      6.2908026823686658       16.90125752983597      65.435256297120318
   321   3     0.65650326486187727      18.884939940175933      62.436730906927338
   322   3     0.63287380905563728      17.532449553420914      61.914047620856941
   323   3      5.6491713253344891      14.711537695036014      66.181161057992654
   324   3      5.8307489583449579      11.821540227202558      65.080656042615232
   325   3      2.7537252318428882      18.255346136506315      61.917800962392626
   326   3      0.4085816328645972       11.26029157892189      62.887783023745556
   327   3      9.2311822336949803      11.073917784599557      64.264949916915242
   328   3      4.8834948737912711      19.839913279395201      63.669812129302251
   329   3      7.5775866089445216      16.312504665162294      64.945461669438586
   330   3      5.1992263050712939      11.806657837139316      66.392903458163062
   331   3      7.8516441125021474      19.752092783368564      63.590388931466819
   332   3      2.5911913876275223       15.91309866340481      61.081230915191178
   333   3      1.5967591618153825      14.825225137495536      61.088681275769439
   334   3      7.7851103252887244      10.071571623133051      61.113872887723623
   335   3      2.8133216570170378      16.282531355627032      72.251109170974274
   336   3      4.8622471743281981      19.818693668289399      71.127975687708684
   337   3      4.9508362545470179      16.688116504583451       67.52127854642346
   338   3      1.1559435311546229      19.159864586793258       68.94370031604376
   339   3      3.4704180488164109      14.884908441877744       70.28489990777291
   340   3      2.8538182488720172      17.274160446523446      69.689146866813047
   341   3      3.6385252671044999      17.892116687956058      70.674928443886003
   342   3      4.0449121575068006      13.823541369753233      69.436972066608988
   343   3        4.94015888942298      19.049691057122129      68.781934496143975
   344   3      8.7477012097412832      14.197669052009871      70.218567297450903
   345   3      7.3066577645728303      13.518712516529108      68.590429458873714
   346   3      4.5999273409425099       18.81821484154047      70.193560844052826
   347   3       5.500862816485216       11.84105379229614      68.906343116791206
   348   3      4.3367790948003631      12.415044682532756       69.58012281096866
   349   3      9.5969465061846488      13.633892193076038      69.130713914950348
   350   3      3.4207582576851654      16.056357601286734      69.434778933813746
   351   3      8.7009078021397546      13.257618309637049      68.055423426946533
   352   3      7.5936839500193907      14.629428965667968      69.399988656877014
   353   3      8.1978950479688315      13.129930696865568      71.087914418013867
   354   3      4.2133471372053259      15.805313331060622      68.312531680311366
   355   3      4.4141820619658132      14.430162098729616      68.216035460734219
   356   3      5.3105746366203634      11.031326210158941       67.58225034176624
   357   3      1.7473785690094779      17.825065245142429      68.766151123664912
   358   3      9.2702407551364896      18.333829534595132      68.938992744385189
   359   3      7.4260600860656032      12.154566269725189      70.560222976852017