(written by ASE)

272 atoms
5 atom types

0.0                      20  xlo xhi
0.0                      20  ylo yhi
0.0      11.063219273426277  zlo zhi

Atoms # atomic

     1   1       8.696629238164407      7.2394344496137037     0.55680383592052962
     2   2    0.032843036882437282      2.8928583718894667      4.1948058781441766
     3   1      6.0116610995009356      8.3776590429550275      1.4890943808149188
     4   1      4.7905304529340569      5.5080962691798918      1.3755294666852862
     5   1      3.1659817560478265      5.7457944465183797      3.0714914210096644
     6   2      6.4633559249189343     0.91064443227345082      1.5520734492423998
     7   1      9.2604078339028959      1.0583948366690275      4.0793156596651663
     8   1      5.7491271769303376      2.0870944615858917        2.49465685654582
     9   1      6.8706976786565255      3.0867104865551824       4.292602556780686
    10   2      5.6806189796003972      1.9021080615097321      4.1927280091668813
    11   1      2.7763929275250794      1.5822686396729846      2.4332173501465135
    12   1       5.681167418324331    0.052488278440738188     0.31515759109747776
    13   2      2.5097422949722952    0.028684740507411988      2.7381704287456863
    14   2      7.5208072398199564      8.3185627131734368     0.75434726899334947
    15   2      9.5608825969489342      6.9441121450150645      1.8807423569286852
    16   2      5.1903078112790348      9.5743621587294854     0.65620900796647597
    17   2      5.2639796457021184      7.0142769907421343     0.92057306174285181
    18   2      6.3480347295191883      8.2949610735167543      3.0465303599322979
    19   2      4.8193312183796841      5.2963261151061216      3.0795206409610927
    20   2      3.0577324546685962      5.4327811955559193      1.4014443086545008
    21   2      1.2944577462168314      8.9491943669227609       3.701181590907364
    22   2      5.6450952690268714      4.6126315689495065     0.25499420075145096
    23   2      4.2357616867165042      2.1213938101082199      1.8728153514382413
    24   2      2.6002781259303136      2.2911152008725399      3.8717839507542986
    25   2      1.6990880103099515      2.0006187895653937      1.2762824578544496
    26   2      3.2201423821626429      7.3329124930677203      3.5556401388348178
    27   2      1.9810123007523117      4.9439802674457836      3.9123842630867571
    28   2      6.7870446002134344      3.4555406239929742      2.6279142407282414
    29   2      8.2828883771381676      2.3151223095211386      4.3914220785886329
    30   2      8.0773060314110818      5.7856258567649999      0.1887437959829672
    31   1      1.6220671472535724      3.4517361688549872       4.466706462679177
    32   1      6.8759973777182193      8.2922916462536378      4.6059537469515597
    33   1      2.4784087849536736      8.3974922593334291      4.5781405510759399
    34   2      8.2709676918734196      9.1414295561129606      4.7007382580821613
    35   2       3.233957998885014      9.7558970421287494      5.0817801103208815
    36   2      7.0252243404085535      6.7468754175371881      5.2016645848065863
    37   2      5.7557094699217295      8.9851907121557524      5.5186618177429239
    38   2       6.590771688398501      4.1521803922408038      5.5007980954625069
    39   2      4.5483551250160206      5.8432294941605702      5.7025395635253657
    40   2      2.1137208956551774      7.3830273831244675      5.8046949754401354
    41   2      2.2402131490610255      1.0718298869334963      5.9509595335640544
    42   5       7.297628052451115      1.0631468765672036      5.9809426875337959
    43   2      4.2053718155737077     0.11707378057870539      5.9976485738311123
    44   1      6.0991120980520197      5.6351914479305689      5.9995404672636932
    45   5      4.3391279360265766      3.1159375022040714      5.9951640956248404
    46   5    0.047336161510376229      7.8122558498410584      5.9985325871230915
    47   2      1.9908851707367037      3.5036774730604492      5.9957899927599314
    48   1      3.3582152012999411      4.6149028340158669      5.9986983664017153
    49   3      1.8242364098601818      1.3564450846271623      7.1142781780593243
    50   3      2.2230497915612113      7.1646174663100393       7.125156205511197
    51   1      5.9428420630763901     0.22582587273915142       6.441532114854013
    52   3      2.6463862042263404      5.7598821843808299      7.4024778741511463
    53   5      6.2307727615008268      5.6796720852056213       7.581697751452964
    54   5      5.8599195571715068     0.34450033545339204      8.0129902787848977
    55   3      1.7458557811282693      8.1440287580151747      7.9461504791087609
    56   3      9.1486687208262705      3.5515714619630478      7.3303467822112713
    57   3      2.3283482925639518      5.0082587096785343      8.4368524289703224
    58   5      9.5934671056535965      2.9814452076283549      8.3740675441845909
    59   3       1.049490669562539      9.0254904536916456       8.575088341691961
    60   5       6.611848473901607      3.2012677996632855       9.170058581991313
    61   3     0.38080122259321503      9.4534434880117679      9.7519937560917693
    62   5      8.7602200545431685      8.4442339223150498       9.612532061572205
    63   5      1.5448917997483536      1.8168712816833421       9.867804459176531
    64   3      1.9164478211843294      4.3028736810787596      9.4620252419125865
    65   3      8.3648744802154003      8.8495744161918921      10.859866937770258
    66   3      1.2430515874739303      3.1573037667104842      10.112144691566792
    67   3      7.1390943190316536      2.7997373526043927      10.346649106491643
    68   5      6.7225527154159481       1.542732097099633       10.53347920434541
    69   3      2.1631785105830943      3.9667735521487257      10.843035369607129
    70   5     0.24645451903654941      9.9800473619242389       7.801544359584069
    71   5      9.2590577010267658      3.5124183730862635      10.902755496325732
    72   5      5.1304407543985722      4.6782034221494744      11.062460898258653
    73   5      2.0207363442910036      9.2059997154940838      11.054381471559452
    74   1      8.3006664462237403       18.17582406959815       3.796482046537434
    75   1       5.354187803258549      17.218995050026187      3.6294289827628994
    76   1      5.0391287658476438      17.145532370470111     0.79539183301255001
    77   1      9.9719495300502068      15.628949033732415      2.6905193258337263
    78   1      1.1295739962843563      16.152968996385333      2.4642398605610119
    79   1      2.4579311066787497      18.708588498224753      3.6281998091873326
    80   2      1.3091599727442491      17.689768257541377      3.0424383398489496
    81   1      8.2550074096138477      12.980783780624723      2.6830897882207196
    82   1      5.3740852929267149      12.503734570284522      3.2806115596335381
    83   1      4.8110683971965997      11.197134668336515     0.40120927748345636
    84   1       1.842635412874053      12.252800136818237     0.80106555838193927
    85   1      2.6821280916897656       13.80421517427858      3.5279175025879574
    86   2      5.1185117039508885      18.793882871310256      1.0931032317673957
    87   2      8.6055408097231449      19.747652865504076      3.3046460881237181
    88   2      3.2102096617872822      11.552022763353833     0.18879117848556604
    89   2      4.2495711666457217      13.542262686951974      3.7034053968408571
    90   2      2.0947623525789538      12.792534254170928      2.3841340411493057
    91   2       3.891610890735766      17.908905133466373      3.6090921802813654
    92   2     0.70081361979119094      11.116937146982719     0.77178974410317736
    93   2      1.1767915760031114      16.088455636888149     0.81923418691007477
    94   2      9.1409753923754256      17.059790198424871      2.9346827677174758
    95   2      5.2009203271026472      12.037305285606905      1.7132769972625255
    96   2      6.6936938050853456      13.279021210444707      2.9485862353871184
    97   2       8.449589675190639      12.553759779895621      1.1019424698967146
    98   2      5.2426419616524491      11.262958448513585      4.3520654519846182
    99   2      8.5880590409161499      11.793987067735559      3.7446907414983635
   100   2      6.6814549452314154      18.129740747352223      3.6123993406865686
   101   2      9.0431683319486051       14.35943105867703      2.9906122550724277
   102   2      5.2942750884282832      16.399683280085718      2.2387412855988451
   103   2      2.3922861240160911      15.326672591431798      3.0453840109402606
   104   1      8.5557695890977676      10.733022030378685      5.0321354727145255
   105   2      5.6110088524469592      16.350606440167699      5.0509629743908881
   106   2      2.0934290732520466      13.799388646439258      5.0574937300658895
   107   2      2.3670921592101752      18.887518461226151      5.2524360876062346
   108   2      8.7948654513652578      17.956791945835985      5.3331744110581916
   109   2     0.26479241952507948      15.512048458995755      5.4110913001419654
   110   1      4.7518686808135051      10.297521346555063      5.5416345550378949
   111   3      3.0163164893548644      19.970862581298352      5.8879036366081738
   112   5      6.5697600492158781      18.879955908476056      5.9010119562785137
   113   5      4.3284756937123188      18.044434091778268      5.9218357497444796
   114   2      7.3425577893904421      11.136887225922907      5.9949452783002508
   115   2      2.5952478766889504      16.250241195129682      5.9968148272921518
   116   1      9.8674994097105149      19.053239631979171      5.9984578252779484
   117   1      1.6380958431291175      15.004425887127404      5.9994914949163762
   118   1       4.224234911829222       16.53390159535801      5.9990314746117663
   119   2      9.0193922314771839      13.709982939005858      5.9978237366078924
   120   5      4.6984337405739307       11.22453534654867      6.8287572555075711
   121   3      7.1242956767777095      12.227837552331417      6.7199347420965587
   122   5      6.5225381678911685      13.203168832421586      5.9994653675775833
   123   5      4.6335833213604731      15.888687963092725      7.3882617891369797
   124   5      1.4450369401602234      14.400593223155562      7.4091836333003647
   125   5      9.3455584037398971      19.187602752366374      7.5260557669424157
   126   3      7.2386055793386861      12.370745644777958      8.1056275548417425
   127   5      7.9126349048606803      14.691460441602233      7.8640131254925656
   128   5      6.6768628747731631      10.071345424495471       8.242696479794704
   129   5      3.1452252920177322      16.151258701472717      9.8643982222859332
   130   5      6.3036890700202006      14.150721280490577      9.0941199087279525
   131   3      7.0987705344330543      11.234625427725941       8.908580010008551
   132   3      7.5086424422899656      13.684607970512864      8.6644962852557903
   133   5      8.3795950093897034      13.665192644215182      9.7056618541493496
   134   5   0.0016145334828827629      12.159610125564697      6.6837434812787251
   135   5       1.377630221221108      14.305210064323592      9.8910904502518502
   136   5      1.3266536749219746      10.877505294190104      10.241755060486328
   137   3      7.1545981519780799      11.038358233962677      10.247448038906549
   138   2     0.13915787565107871      10.429290821584097      9.8339111946122326
   139   5      8.5317042919582402      16.035111020972963      10.724780768327738
   140   5      5.5394420883857611      12.747026494811502      11.039453759454826
   141   1      15.455208846507746      7.6881673840998142      1.6671688180146909
   142   1      17.975264859103959       7.348727941391906      2.9560360704090307
   143   1      19.762466281862547      9.3685913691390681      3.7043626219983992
   144   1      10.762485306601707      6.1786041767941935      2.6682119475190973
   145   1      13.273005783240173      6.9501929975843009      3.7267914288762967
   146   1      17.739635358623687      6.1453673637652262     0.23185526718958371
   147   2      14.492323141890173      6.8278293636443719      2.6679671157599643
   148   1      18.093499725996509     0.80945948043691152      1.6401230971816716
   149   1      11.934019536476805        3.71278728117858     0.95591024470531305
   150   2      11.946851101967473      7.3238195373273296      2.8731541637147764
   151   1      14.475050888668708     0.81494258807424447      4.0914295852013787
   152   1      11.927519587750099       1.983945948495645       3.305568707363765
   153   2      17.328083330118581      6.0120684844955807      3.5771246833290391
   154   2      16.685437881442041      8.2678206878106906      2.5863207535337125
   155   2      18.608602411447706      6.9060165446822239      1.4512469450506416
   156   2      16.124228175519558      6.7617953641674609     0.46502800133860056
   157   2      12.663053470451118      2.5787147194892568      1.9415866227852625
   158   2      11.472897249176086      3.2587008052302124      4.2309770625880745
   159   2      18.905041832364109      7.9548341970459475      4.1839328389131261
   160   2      10.450956512612217      1.3306533018775184      3.0164978893835297
   161   2      12.831375590643521     0.98506278137844316      4.1980776704548326
   162   2      19.389646607018388    0.050820258989642056       1.100770270059936
   163   2      19.237933458963294      9.5982117711149684      2.1706580078900934
   164   2      17.751858188487589      2.0249324600756999     0.64456900334613998
   165   2       15.32832294056343      2.2105872179037989      4.4239767681648594
   166   2      10.412950841384559      5.4979276640774613       4.167375316351233
   167   2      14.585645527071147      0.5607130470673336      2.4931689153767564
   168   2      13.013358213000812      5.4628247137768717      4.4053065854980957
   169   2      14.625548610629981      8.9803434121869827       1.097136040442745
   170   2      18.218752435853009      1.4022214621708899      3.1267386871217582
   171   2      11.211676921130582      4.9724420015558737      1.6221191878060175
   172   2      18.065214900579946      4.5826841939718186     0.60725191535685852
   173   1      18.829122703091979      1.8005374269107388       4.529735158880591
   174   1      11.646946604343807      4.7016938653373108      4.8925529574848241
   175   2      13.359278465814274      8.0793347880636865      4.9353777072180485
   176   2       15.76627599362892      4.5532882396431704      4.9983143984716989
   177   1      16.598257494143063      5.8662917906779679       5.068758468060615
   178   2      19.283008282652709     0.45162262573393452      5.2532656005967411
   179   2      15.378093960586501      9.7821253406856137       5.315761845029229
   180   2      10.001380209449533      0.5976951251789977      5.4072781635595142
   181   2      17.712980634344625       2.629698454410005      5.4108940834288006
   182   1       16.13703620878595      3.0389521021341848      5.5295376506768008
   183   2      15.519107666438718      7.0000626785872777      5.5895609695181925
   184   1      14.692343703078201      8.3259539560952298      5.8531085923576391
   185   5      10.894925217605858      7.4301814768322805      5.8319099868209028
   186   2      17.657723796478564      8.8858192553384097      5.8822707776460748
   187   2      17.914853109421152      6.0035460846878994      5.9982355729433454
   188   1       18.49348305011921       7.557727864308462      5.9995864487775847
   189   5      11.509201578260946      4.5135793385282854      6.4611462437217169
   190   5      15.637358187224379      2.8933352032536104      7.0571933935149094
   191   5       14.45133686753775      8.5617423545699065      7.4112656234632057
   192   5      18.648626646486388      7.5016526385468563      7.6352160841823107
   193   5       11.74635402942873      3.2391204885900327      10.590248057799318
   194   3      12.551744135553795     0.36689342208049425      10.302286548209489
   195   5      12.885423193166787     0.48530369543583873      8.9829429648952654
   196   5      11.177356493116088     0.25195319522136472        10.3984531597765
   197   5      13.581507385028981      2.9317082899025344       9.413736271958637
   198   5      19.728784721345917      8.2628759878926044      9.9493086807231403
   199   3      13.053713108696774      2.8573852385199889      10.660046826191637
   200   5      10.333005894089958      6.4477670252834116      10.749373745817847
   201   5      19.914446398063401      3.1149754121041169      10.403941769316518
   202   1      15.259110088851031       19.76123740811137      1.2840704502741183
   203   1      15.105207711471147      16.916888598916366     0.36424922480843591
   204   1      18.041220982239651      16.193138051383333     0.11563146586814096
   205   1      16.626226637317366      12.006806658690083      2.0649931072006247
   206   1      15.235605757794826      10.878286792047696      4.1933023893244012
   207   1      19.194153702016507      10.696276279176134      1.0618223796284703
   208   1      15.105498528449266      13.767605383893823      3.9843292412067579
   209   1      19.250569570515893      14.878174027880906      4.3737550390934068
   210   1       14.14598242308772      10.489405092783286      1.4562136278656652
   211   1      12.217055085671484      14.296193018351593       4.241426070140534
   212   2      16.593233915329428      16.281120474463719     0.90539969357960892
   213   2      13.600950404383632      14.208393618244193      3.3924115699330386
   214   2      16.836078129689994      19.784636699890232      1.5277301194532882
   215   2      19.763737629070832       15.40431584303507       2.919435318841586
   216   2      18.930016537798487       17.51303912433562      0.5506425810009592
   217   2      14.099694573236912      10.566167142457761      3.1191863634795567
   218   2      14.760567744221254      18.202275248622097      1.1859175547715797
   219   2      13.839592821518139      15.835026911675669     0.42381619011198701
   220   2      11.289307632362211      15.538545306242392      3.7452254875546052
   221   2      10.554874650667745        15.7459852099052      1.2039591693692486
   222   2      18.212705374415556      12.036007572728648      1.5452693126953179
   223   2      16.707700508841455      10.962871791079499      3.4198749336217737
   224   2      16.139016941748572      13.454128361229474      2.7717136269041269
   225   2       12.72040259905638      11.088960020452754     0.91109057135421345
   226   2      18.691399391979932      14.651067138322952     0.22744720098214799
   227   2      11.488430548569813      12.792335397081294      3.9991124885198097
   228   2      15.384812211352674      11.585822385778533     0.98531370108076455
   229   2      19.189950682412082      13.210818368737078       4.431640683655349
   230   2      19.713061357320157       10.54181065042866      4.7605170325283979
   231   2      14.932821916236884      12.386754104902966       4.863534886136275
   232   2      17.858971561566076      15.548851289915683      4.8779041560082597
   233   2      15.093874548983948      19.563331123989553      4.9755370782845709
   234   2        15.4852263677547      14.798429600919693      5.1196933010022647
   235   1      11.154997904344224      11.981210242538392      5.4158542272535897
   236   2      10.142945849509307      10.649302285033936      5.4211946688468444
   237   1      19.165685919673212      11.864690408313725      5.4371065350444638
   238   2      16.333868218823476      17.392588360350775      5.4808544144322902
   239   1      16.608272084975432      15.786570280672771      5.7964081342407781
   240   2       12.63081703381232      14.676128940310713      5.8117677477549954
   241   3      18.182510259247639      19.952399010229311       5.982101309972351
   242   2      12.592235900632556      11.415417916071846      5.9990686079561639
   243   2      17.009850091821434      19.997114031056576      5.9995182398802012
   244   5      13.728880782273487      17.009864504197527      5.9995282286974012
   245   5      18.935969964243281      18.089873772964719      5.9990764902456224
   246   2      17.758805856997416      11.318404798488475       5.999753235472137
   247   1       15.91388533117521      18.797535717994357      5.9999551072127728
   248   5      11.274529709381156      18.507244746233585      5.9975994222205449
   249   3      10.179944612536058      13.607503481706633      5.9869516018871556
   250   1      13.088534867772434      15.770636457455849      6.8284143275739169
   251   3      13.472025907771226      11.380818701016711      6.8736475489203483
   252   3      17.788398259627691      10.104943381647187      6.6725088073032257
   253   5      16.813763776228217       15.39957816834319      7.3189787052421211
   254   5       11.90087303916844      16.384984003481382      7.6799389714827724
   255   5      15.399596594024159      18.665466898700739      7.5064245117755792
   256   5      14.160547382347479      15.298628440889088      7.8724149991936736
   257   5      10.852118697507599      13.730510753586502      7.2789565204842175
   258   5      17.735806262783036      16.116506142856359      10.155016933327177
   259   5      15.249387484073546      16.267542074193287      10.764076481194969
   260   5      16.234223767139607      14.199413429388816      9.6032375454026102
   261   5      18.239391569212252      10.348905599118757      9.2687755355224173
   262   5      13.004958504275814      18.089555328648803      9.8419416148947096
   263   3      13.109419524344368      19.032102175168834      10.794679508585848
   264   5      14.906382428676327      12.837412758402893      10.684715927365882
   265   5      10.179786364252113      12.470167670992859      10.871903947204705
   266   5      11.307992868499365      16.059253377566215      10.434387681183154
   267   5      16.256713790691325      10.800757305098612      8.2028990996148909
   268   5      18.356226621093327      18.266520477223455      10.181086508853321
   269   3      17.362805079378891      10.177205398176666      8.0310252698532469
   270   3       15.71810550586175       13.90302247170003       10.84014671547073
   271   3      18.205918079892896      17.116877057479496      10.908952970459206
   272   5      10.800679336192694      10.398332767101907      10.896839420690361


Velocities

     1                       0                       0                       0
     2                       0                       0                       0
     3                       0                       0                       0
     4                       0                       0                       0
     5                       0                       0                       0
     6                       0                       0                       0
     7                       0                       0                       0
     8                       0                       0                       0
     9                       0                       0                       0
    10                       0                       0                       0
    11                       0                       0                       0
    12                       0                       0                       0
    13                       0                       0                       0
    14                       0                       0                       0
    15                       0                       0                       0
    16                       0                       0                       0
    17                       0                       0                       0
    18                       0                       0                       0
    19                       0                       0                       0
    20                       0                       0                       0
    21                       0                       0                       0
    22                       0                       0                       0
    23                       0                       0                       0
    24                       0                       0                       0
    25                       0                       0                       0
    26                       0                       0                       0
    27                       0                       0                       0
    28                       0                       0                       0
    29                       0                       0                       0
    30                       0                       0                       0
    31                       0                       0                       0
    32                       0                       0                       0
    33                       0                       0                       0
    34                       0                       0                       0
    35                       0                       0                       0
    36                       0                       0                       0
    37                       0                       0                       0
    38                       0                       0                       0
    39                       0                       0                       0
    40                       0                       0                       0
    41                       0                       0                       0
    42                       0                       0                       0
    43                       0                       0                       0
    44                       0                       0                       0
    45                       0                       0                       0
    46                       0                       0                       0
    47                       0                       0                       0
    48                       0                       0                       0
    49     0.19670813726764325    -0.65145504296705514      1.1358303141261954
    50     -13.417077003826268     -2.7488348061384871     -3.3260683696245339
    51      2.3245831518959608     0.55327584945119967    -0.43456859378422669
    52    -0.45861344608057913     0.30105076810569581     -4.7291345523452719
    53      1.3047819752867711     0.47907175523461071     -2.2598279312087959
    54      2.2506635292549064      5.0741394613157711     -2.0286490768962517
    55      8.0443716998991661      3.1147640403143888     -1.0213142997006306
    56     0.51351737562053945    -0.46703231606075069     -5.0382469778026397
    57      4.8367952991972407      2.2140221479352808      1.8011494856569457
    58     -3.8181604781542062     0.22371160804451287     -2.5308567826560062
    59       1.850336741725402     0.87459202184977813     -2.4002520257361146
    60     0.49554744128940076      2.5389622527943714      -1.766518872808754
    61      1.7393787705434638      2.9785627592233133     -1.7010479093772284
    62       -5.36060578383539  -0.0099806099522271024     -3.8829327022387687
    63      -2.337975959496013       2.252432577768027      1.4823364971096089
    64    -0.27376244632958369     -2.7319568736920514     -1.7633318973453087
    65     -3.6230994870898274      1.3954858783242001      1.5798203471882042
    66      4.0767657181114725      8.3568744712989815     0.19213535212357813
    67      6.6147050614914686     -6.8185258845184222     -5.6096759334577344
    68     -0.7242706020570413      2.1250664599410993     -0.1726444802251465
    69    0.048001142889768332     -2.7956926474023036      3.4085482769696545
    70      4.4839186328963319      1.5050966851506811     0.23069517421811392
    71    0.006373108940942041   0.0074889607457344432     -0.9762039036209218
    72      4.6297988447274427      1.1716197579271592     -5.4521782179343496
    73      3.0466952108124894      1.4535764403192231      2.1794765419568001
    74                       0                       0                       0
    75                       0                       0                       0
    76                       0                       0                       0
    77                       0                       0                       0
    78                       0                       0                       0
    79                       0                       0                       0
    80                       0                       0                       0
    81                       0                       0                       0
    82                       0                       0                       0
    83                       0                       0                       0
    84                       0                       0                       0
    85                       0                       0                       0
    86                       0                       0                       0
    87                       0                       0                       0
    88                       0                       0                       0
    89                       0                       0                       0
    90                       0                       0                       0
    91                       0                       0                       0