LAMMPS data file via write_data, version 2 Aug 2023, timestep = 77000, units = metal

297 atoms
5 atom types

0 15 xlo xhi
0 15 ylo yhi
0 20 zlo zhi
0 0 0 xy xz yz

Masses

1 28.0855
2 15.999
3 12.011
4 1.00784
5 18.998

Atoms # atomic

74 2 1.2771291130364815 0.9559469399105056 2.2183203104401517 -5 2 2
49 1 1.9498786735069242 2.117902644016445 1.2818470367190546 -5 3 2
281 1 1.0503684164794338 0.6621919223358522 3.8500434666235273 -4 3 2
207 2 3.3966867893121955 1.4875344380744937 0.8621782899153095 -5 3 2
292 2 2.153087203976748 14.663786512432852 4.420971370424324 -4 2 2
133 2 5.800763447430411 2.752397520726698 0.4441070550514301 -5 3 2
81 2 7.864593893127508 3.1015384225519576 2.50689786954677 -5 2 2
164 1 9.391788151797876 3.1207096904566933 3.225700277242496 -5 2 2
208 1 7.31178296562262 2.988808840458071 0.8766220229494365 -5 3 2
223 2 9.903264222871973 1.5739369295433514 3.6602442004104976 -5 3 2
91 2 10.415527871143905 3.5184095452121356 2.006497937631061 -5 2 2
162 1 10.489426746552517 0.13446732491311733 3.3372425215144097 -5 2 2
242 2 14.508559001310154 0.13933687982720688 3.998951524428993 -5 2 2
201 2 13.008928792927922 3.0776651929452874 2.47224002092095 -5 2 2
163 2 12.120036510608193 14.742059469067026 3.2978813429852605 -5 1 2
158 2 2.249783746609346 3.352237279065826 2.2989029020784857 -5 2 2
170 2 0.03435833114392778 4.42106766434758 3.2971069780802194 -4 2 2
176 1 1.3346396192558045 4.689902721055719 2.355734730098959 -4 2 2
96 2 1.0202810367096569 5.015103534807382 0.7853387974978476 -4 2 2
100 2 2.2478197157493036 5.974242313239259 2.8697672690067035 -4 2 2
220 1 3.5751474969261423 6.382611923295532 3.763563988319988 -4 2 2
28 2 4.9251125865796075 6.7028369810078035 2.8924322256363717 -5 2 2
90 2 9.393783268686752 6.305290746725203 0.8041614285177845 -5 2 2
189 2 7.5114938074604805 4.521361162558361 0.35677035283394937 -5 2 2
23 1 11.856242174903608 3.6462171332705613 1.3596246859588552 -5 2 2
267 1 13.587589166398024 3.7294835150144583 3.8448720959489857 -5 2 2
153 2 12.347927124122386 4.679466962064825 4.348290214113074 -6 2 2
161 2 12.002780909420913 5.21647576352927 1.0071066185577813 -5 2 2
127 1 11.219403721120198 6.502951401113888 0.5413315435910165 -6 3 2
79 1 0.6066846977784742 9.772500698290097 2.0933941795328828 -5 2 2
78 2 2.1007849406319417 9.538793392087983 2.7644996444149887 -5 2 2
117 2 0.6008084498694131 9.064552240650265 0.5415151485921955 -4 2 2
21 1 2.4336692235317083 9.157434264852824 4.388562571140285 -4 2 1
192 2 3.2775731806145734 7.787988437999031 4.497165649569253 -5 2 2
7 1 5.427361174647012 7.894414577050052 1.9136329612366945 -5 2 2
159 2 5.274800085156721 9.152353140520617 2.8788371660938554 -5 2 2
160 1 5.885555554348923 10.756101545274763 2.8410694416219995 -5 2 2
3 2 4.5913459302266215 8.19393090444968 0.6126687133617763 -5 2 2
125 2 4.125248260816527 10.6654280057951 0.1061256828187872 -5 2 2
94 2 7.016134825857232 7.663700382194686 1.4866037070218676 -4 2 2
214 2 6.515766771004431 10.917286619332497 4.306934811511135 -5 2 2
171 1 8.24848296651249 7.626836452480334 0.5247978223329652 -5 2 2
112 2 9.251178869831353 8.843939872198687 0.5899184382105455 -5 2 2
240 2 10.646616178014717 9.518687632549996 2.7654806776842844 -5 1 2
107 1 10.72444535920102 9.14663726649033 1.2992319078044592 -5 2 2
225 2 14.356771451289822 9.195293534130645 3.0894829037604454 -5 2 2
5 2 11.634712841722777 7.756221046026042 1.4457939188470212 -5 2 2
244 2 11.57040427398951 10.19750872650046 0.4437368904465086 -5 2 2
34 2 6.9614875469663815 10.939020888464194 1.5881963322574228 -5 1 2
202 2 4.731841233548165 11.829529516224534 2.930067728913706 -4 2 2
250 2 4.497000742080098 14.509988064258375 3.431249120226983 -5 2 2
122 1 4.797481266417241 13.28839213215645 2.3329292528206134 -4 2 2
155 2 3.932565819516531 13.320744144950417 0.8843118263441867 -5 1 2
183 2 6.3500593871033795 13.61296905256182 1.8432973183909418 -5 2 2
206 1 6.970834856081592 12.422910570675091 0.8404139942980827 -5 2 2
237 2 9.950385862996333 14.929030159943588 1.7673130184164265 -5 1 2
82 1 9.820454152795165 13.807853638517404 0.5563306098004224 -5 1 2
157 2 8.586086331812982 12.73487870369079 0.47810385562584207 -5 1 2
54 2 11.272777731363082 12.975577601531036 0.7087305118058493 -5 2 2
218 2 0.3383137069568415 11.27791317924578 1.8708755134109252 -4 2 2
148 1 14.764462522296903 12.542753541565787 0.9343716445355211 -5 2 2
111 2 13.948070667212825 13.593782115827947 1.852589427378536 -5 2 2
145 1 13.589123740791162 13.935478384171288 3.4535547595494465 -5 2 2
101 2 1.28134211646143 1.980326681639207 4.825866601853887 -4 2 2
92 1 0.3416945467344753 2.640854084488664 5.921146319061047 -4 2 2
245 2 0.1261586157829928 1.613188980598771 7.104227173575922 -4 2 2
270 2 4.943233718242964 2.9609684237771545 6.2509919614251785 -4 3 2
247 1 5.262211806302423 1.376180201656579 6.74373819002109 -5 2 2
210 2 4.477233326174525 0.32424268482513396 5.798680566995315 -4 3 2
228 2 6.8462302862255875 1.2325523311714601 6.648627903548823 -5 2 2
42 1 8.300677773020562 1.0003335408678553 7.343113691827532 -5 2 1
236 2 9.058578153270796 2.4616469339203544 7.393858069478596 -5 2 2
195 2 9.050746014403261 0.0389827337646128 6.339953749711783 -5 3 2
182 1 10.370953112716599 3.1656116716636404 7.999784646098171 -5 2 2
97 2 13.939433100239526 2.9567155842675334 5.201135993736407 -5 2 2
282 2 13.046418194709895 14.860171452781879 8.196619409929632 -5 2 2
178 2 0.8985039932019859 4.112735050729274 6.219873966618059 -4 2 2
17 1 1.6197241345969164 4.413523237421725 7.787912078052709 -4 2 1
268 2 3.252692319579795 4.498692822403842 7.517404272855094 -4 2 2
243 1 4.3464283772163155 4.519950092497183 6.322870184307515 -4 2 2
154 2 3.8649083830009126 5.3403381389350795 4.989795925623945 -5 2 2
84 2 5.623448859941371 5.313223289585301 6.963705840647311 -5 2 2
190 1 5.782892438677875 6.883539483575469 7.130589237752111 -5 2 2
248 2 9.859935562557238 4.175153763247787 4.361378600778587 -5 2 2
150 2 11.19474870473176 3.686703905687365 6.722080695110786 -5 2 2
232 2 13.480102666488929 6.041424430201652 7.639109900099168 -5 2 2
260 1 12.638249369621272 6.942793600619502 6.580323571714222 -5 2 2
64 1 11.110390968367325 4.644613675490001 5.401102189105642 -5 3 1
254 2 11.308169033412923 6.19883436158772 5.9772243735467026 -5 2 2
165 2 1.0313008805806099 8.892940609153476 5.042084805354893 -4 2 2
226 2 3.2338944912744347 10.250995570205449 5.29377638434649 -4 2 2
246 2 7.0199172452599345 7.386329905087691 6.227448922875727 -4 2 3
180 2 4.360623169336798 7.730953548785561 7.031956184505367 -5 2 2
104 2 8.7164114714044 8.486818317211391 4.503224258739103 -5 2 2
172 1 9.973613312508029 9.49352892713461 4.208460460996511 -5 2 2
73 1 8.241047534894708 8.530188872249536 6.1719486692162295 -5 2 2
285 2 7.706765832249612 10.127480148767354 6.440832084178338 -5 3 2
191 2 9.553759637741848 8.191582556699027 7.106982073786181 -5 2 2
168 1 10.96615898635628 9.098971889401327 6.843812813502842 -5 1 2
265 1 14.400544092365129 8.939099709455501 4.710364776004212 -5 2 2
30 2 13.581532362920761 7.672040439586923 5.332601016606797 -5 2 1
219 2 13.958822728468432 10.294239326527501 5.479400825798732 -5 2 2
261 2 12.222512120469691 8.162197548146494 7.495967699631136 -5 2 2
141 2 11.218827415264776 9.31565189628515 5.225820223751182 -6 2 2
110 2 11.231129549562512 10.526037393892508 7.530926287722095 -5 2 2
222 1 2.673146265299637 11.602040229686395 6.010268439757246 -4 2 2
229 2 3.118082585014083 11.622901157631208 7.5348695650751765 -5 1 2
278 2 1.0353965456874665 12.165742172532283 5.755946290161109 -4 2 2
119 2 3.545262135041494 12.793478719063842 5.300820646152843 -4 2 1
2 1 3.6773025003436124 14.318489597229618 4.855421873056625 -5 1 1
179 2 9.291385098220674 10.979609558261977 4.444538405492555 -5 2 2
203 1 7.867075844863337 11.137512636102361 5.202339351676036 -4 2 2
275 2 9.741940892833702 13.858143426796744 4.131598279788519 -5 2 2
174 2 7.7954722735609545 12.755505239327494 5.774161014288613 -5 1 2
213 1 9.193284138986902 13.53262314658447 5.699297503579151 -5 2 2
216 2 10.278744997023855 12.919217710044123 6.76129198745068 -5 2 2
286 1 10.497863495101262 11.880446711277818 8.019874529013546 -5 2 2
221 2 13.69070428989102 12.662780486901378 4.45586924694158 -5 2 2
217 1 14.34757544095682 11.874284743833774 5.717814680735746 -5 2 2
284 2 13.709584692345516 12.48841359023615 7.084011248388026 -5 2 2
290 1 0.3824760720114082 1.7259607454425778 8.762295168449695 -4 3 2
166 2 1.0797475521057769 3.199974767005894 8.855726048323138 -4 2 2
272 2 1.3857947847525434 0.6422823359288435 9.363237398918015 -5 3 2
144 2 1.9824848883239048 2.0396355161064843 11.270115894277835 -4 3 1
294 1 2.341675873413597 0.35551599474365564 10.761337538218097 -4 3 2
253 2 4.90481774254101 0.9734625759730532 8.27287862157132 -5 2 2
209 2 4.027972256909271 0.7239496679532572 10.777634975492463 -5 3 2
230 2 5.3463862429897455 2.9956704659582205 9.79516503408962 -5 2 2
56 1 5.217251202992 1.3175903028880644 9.859035948838288 -5 3 1
173 2 6.629402003876484 0.8317015481745647 10.501874618159988 -5 3 2
9 2 8.351143529133154 0.21209933602824485 8.772549089005132 -5 2 1
41 2 9.335817365287175 0.5614821326239309 11.237840918414982 -5 2 1
212 1 7.9952789576277326 0.15035455719673463 10.32477668184153 -5 3 2
187 2 11.09564316536142 2.4991170881803733 11.421378918072795 -5 2 2
11 1 10.919503447610476 0.9570385441623068 11.686655967024542 -5 2 1
136 2 11.300479542312237 2.027509414969609 8.682908191055818 -5 3 1
234 2 13.933484071246117 1.7316001882294623 9.45115194903195 -5 2 2
238 1 12.55451177577484 1.0539337201990027 9.197270991020861 -5 2 2
8 2 11.89482252011604 0.352764213400963 10.52058308081797 -5 2 1
13 2 1.048035008135277 5.840774269305659 8.34789429588779 -4 2 1
103 2 3.1688577705422536 6.657592764358762 12.136847532015091 -5 2 1
233 2 6.21289724845078 3.405191418373856 12.27468170785153 -5 2 2
288 1 4.2629190503342596 6.7778089463510005 10.992689856594309 -4 2 2
296 2 4.778268879591568 5.245414359168516 10.805793639432794 -4 2 2
50 1 5.998194779439602 4.088044332111188 10.850338521756992 -5 3 1
16 2 7.515968949304029 4.477274161999191 10.04871154454264 -4 2 1
53 2 9.186068642869209 6.672890843497925 9.872611741383896 -5 2 1
252 1 9.007217234646646 5.107541470852061 9.96403094098278 -5 2 2
38 2 9.832046327298407 4.949504725682945 11.373725197697922 -5 2 1
251 2 9.906480171034017 4.499551271412836 8.761793274369696 -5 2 2
43 1 14.553596582807222 6.318969384635472 8.924729805757572 -5 2 1
95 2 13.974789309369056 5.617386350839649 10.366007370238254 -5 2 1
231 1 13.888357404231645 4.957290081268284 11.96368470341019 -5 2 2
271 2 1.8229581655793887 9.607935111065741 8.632241384609822 -5 2 2
26 1 0.794538105867991 8.997448291362765 9.722389113738574 -5 2 1
291 2 1.5960186332734823 8.697628446894738 11.106198717617154 -4 2 2
277 1 3.2364932209304618 10.607223111440623 8.805015412808789 -5 2 2
262 2 3.6487482394373756 7.299296561438167 9.527683640558475 -4 2 2
46 1 4.602614352079119 8.116269118553983 8.606901405707458 -4 2 1
227 2 6.130619705060868 7.3471227595653295 8.653634875232544 -5 2 2
293 2 5.566239618654348 7.739126816484159 11.279917636402025 -4 3 2
280 2 4.652343165319694 9.722978369307091 8.804424497889299 -5 2 2
142 2 8.209965449244601 7.6924320136166475 12.19831455201678 -5 2 1
135 1 9.363294882671436 7.824694232507668 11.015117014888995 -5 2 1
264 2 9.176173598942007 9.22989735333195 10.15107645430245 -5 2 2
255 1 9.11160724843702 10.836454102905941 10.513132030635273 -5 2 2
118 2 10.780581268141171 7.815486135054863 11.711405569049862 -5 2 1
258 2 14.852414989872749 7.842377961103351 9.219530956455129 -5 2 2
105 2 14.638775014346956 10.170949553854815 10.06591864672238 -6 2 1
224 2 0.8680369945781441 11.933539802019212 11.562961837034312 -4 2 2
25 1 2.3637631779216965 12.448131611930709 11.269980059155882 -5 2 1
57 2 3.1341840018006675 11.206408555711773 10.325001923880887 -5 2 1
239 2 2.6277851298826223 13.741803487053957 10.215271836820865 -4 1 2
37 2 5.960540999958377 12.847359583679076 12.602581716704185 -5 2 1
256 1 7.476856027859091 12.689733496820304 12.044521984649757 -5 2 2
279 2 7.750554319556868 11.094192495865576 11.453357567601163 -5 2 2
40 2 10.412024837825076 11.578690157597054 11.20037951749561 -5 2 1
194 2 9.134962527232878 11.631628816159047 9.027257271147402 -5 2 2
156 2 7.748192151193153 13.573845574714014 10.751975568871547 -5 1 2
35 1 14.454635078882312 11.722260498911947 10.649989287568776 -6 2 1
61 1 13.116492850056684 13.261690599154537 8.369066352967444 -5 2 1
259 2 14.25817917114336 12.858627809767002 9.515483652062958 -5 2 2
68 2 11.61546225310244 12.686180281373055 8.88317296445088 -5 2 1
66 1 11.643200569366135 11.464068351391726 12.268715445392209 -5 2 1
266 2 13.034406280320066 11.734560374228977 11.40467806298611 -5 2 2
86 2 1.6667636472680631 14.780816254115749 12.269460481997282 -4 1 1
27 1 1.2957552201631055 2.8299339172813873 12.496985853090088 -5 2 1
67 2 0.8980535439264674 1.962857006164013 13.83240499082833 -4 2 1
65 1 0.8452705021770776 0.2380011163473544 13.603282307790144 -4 3 1
128 2 3.2906836013029515 2.5103349517814837 15.65198286288345 -5 3 1
12 2 10.190761076596099 3.7761504588191475 13.613459580907442 -5 2 1
131 1 14.24716754964036 2.027685749903441 16.512065378616526 -5 3 1
99 2 13.240267851997842 1.6543018344989804 15.218651743633567 -5 2 1
113 2 11.471467406607685 0.6919641303304804 13.355878989686438 -5 2 1
14 1 12.826318856517904 0.37066496157728546 14.317968779923094 -5 2 1
47 2 14.83804440867742 3.5371954182255454 16.252868428131247 -5 2 1
114 2 2.706082438594208 3.5856852938580763 13.174356154383332 -4 2 1
283 2 2.141077099851605 4.770464965977487 15.44015500173817 -4 2 2
276 1 3.2178439724058268 3.8250975348374783 14.657154161788009 -5 3 2
93 2 4.830087264757581 4.369841292631055 14.538529853429571 -5 2 1
36 1 6.201870988325406 4.436567302921001 13.697422159448852 -5 2 1
75 2 6.373077854647778 5.963447662676996 13.26405256335249 -5 2 1
129 2 9.858743982590623 3.671516641125586 16.031285195546626 -5 3 1
6 2 7.555180869175712 4.003840630758383 14.635248048121474 -5 2 1
98 1 9.193720280086858 4.330986167077915 14.754912630236028 -5 2 1
115 2 9.095060264635672 5.995019716409076 14.60773741191688 -5 2 1
59 1 10.121038647574693 7.115663264690221 15.206882466450999 -5 2 1
31 1 10.889564245208133 3.942137017693361 12.19561966597956 -5 2 1
19 2 14.858262033668609 3.668812072852095 12.073257783465897 -5 2 1
22 2 12.311525835360705 4.6302211004748095 12.293231685116652 -5 2 1
287 2 14.25657790881836 5.9337320192402565 13.208886271527208 -5 2 2
20 2 1.0404689130058957 7.715404674646547 13.590803918184456 -4 2 1
55 1 2.175354185996999 7.958018647693948 12.449729213868254 -5 2 1
15 2 3.20115330199037 8.84974118471856 13.258148025542035 -4 1 1
235 1 6.634266753848942 7.48599116095837 12.465517052913594 -5 2 2
69 2 4.774859058325996 10.796711299877751 13.631644401677221 -4 2 1
124 2 4.583741901671205 9.064970072675845 15.569669615514574 -4 2 1
48 1 4.681813769563091 9.302292340939575 13.951255090398863 -5 2 1
184 2 6.170771974400909 8.594916665973585 13.542871419315448 -5 2 2
70 1 8.587761015473543 9.843851480279708 15.834380932201917 -5 2 1
205 2 8.639844182346273 10.882967525908777 14.593146335473737 -5 2 1
139 2 9.174976976136092 8.499442999267032 15.181252844844096 -5 2 1
263 1 14.464965866931555 7.437421553872406 13.737739002101835 -5 2 2
249 2 11.385225634404446 7.446860397576962 14.170453737274947 -6 2 2
83 2 14.153347939065432 7.866685554163487 15.259881086467235 -5 2 1
39 2 13.4239272766908 8.17956349913416 12.76605970983672 -5 2 1
151 1 11.792286137539262 8.351261565461396 12.924280417117322 -5 2 1
33 2 11.53668677739749 9.973122473592424 12.987548958421236 -5 2 1
58 2 1.4996190092400128 14.32103404142175 14.752890847074823 -5 2 1
257 2 3.1692708615107863 12.57886859668844 12.683597036398451 -5 2 2
197 1 4.641206053023904 12.361841871633123 13.356853789247438 -5 2 2
274 2 4.746078929958568 13.045263066920082 14.8519555926703 -5 2 2
134 1 5.662516356375156 12.768766014503697 16.070278464717386 -5 2 1
109 2 7.262561846352799 12.949026472686757 15.641692052269809 -5 2 1
44 2 8.55617460192304 13.074917774501786 13.311373747592814 -5 2 1
123 1 8.579624082300272 12.480206162784647 14.775771044764472 -4 2 1
4 2 9.891837064914812 12.922405982913528 15.563025162867616 -5 1 1
10 2 11.867532015470891 11.320259654137669 15.831147449073729 -5 1 1
72 2 14.235706350024822 14.81291389609688 13.548706457793081 -5 2 1
24 2 12.299777491461228 14.136386446237287 15.37743597135174 -5 1 1
289 2 11.691746875397875 12.597811003021333 13.429787978422835 -5 2 2
146 1 11.446967055693408 12.746876959454806 15.078982702465602 -5 2 1
167 2 0.38841318674225006 0.8577666688724237 16.68959975170428 -4 2 1
76 2 1.0164755449655236 2.777917684797858 0.1486594152472485 -5 2 2
106 2 2.913977105349347 0.5577963353705969 17.151365569002543 -5 3 1
295 1 1.563013306915559 14.778932696863281 16.45204258043405 -4 2 2
269 2 5.382454954624573 1.5602026787550163 16.79197604362318 -4 2 2
51 1 3.8144768381825562 1.9130921989895484 17.04016190254422 -5 3 1
177 2 3.787613978249288 2.6848064202774506 18.498361063485067 -4 2 1
102 1 4.549288896847038 1.8952421171517253 19.742997937064 -5 2 1
132 2 5.2864707065692755 0.5220910284516478 19.137049835042852 -5 3 1
45 1 6.0529760859000055 0.38343045375111495 17.7037964246677 -4 2 1
188 2 8.151502202818682 1.8407276419067071 0.15606521798774842 -5 2 2
211 1 8.746897497388103 1.0279272209937578 18.8838549138122 -5 3 1
126 2 9.803562211683447 2.1130963544820185 18.055063742218273 -5 3 1
297 2 7.602678267653189 0.5002416915819929 17.823430948032083 -4 3 2
273 2 9.620460501363514 14.725071363176571 19.20245664662695 -5 2 1
186 2 13.34462690940434 1.9903885789200106 17.89438976154183 -6 2 1
71 1 12.861786488900902 3.3185885224013156 18.69020412273126 -5 3 1
137 2 12.217945391479812 2.842506708951971 0.041023320999545865 -5 3 2
193 2 0.42712087566400336 6.150153449394868 16.703282974367255 -4 2 1
116 1 0.6602059207855508 4.148348840541299 19.42927557209795 -4 2 1
241 1 0.9927815012957106 4.667529633799396 16.577397374795964 -4 2 2
200 2 1.5982159666797424 4.266435114610463 18.1456107675999 -4 2 1
89 1 10.17282846851281 3.6265220849390434 17.618716688790006 -5 2 1
1 2 7.846069802758182 7.045563747748314 19.100735518129383 -6 2 1
138 1 8.43038453400105 5.526889385524363 19.553666304112678 -5 2 1
85 2 9.250782291035543 4.713949596947302 18.434001750265683 -5 2 1
63 2 10.684841482862883 6.835830062773196 16.660555889728798 -5 2 1
204 2 14.153744834787675 4.31027791007277 18.927492376825654 -6 3 1
18 2 11.68612971846988 4.0433535084775505 17.84781478159317 -5 2 1
198 2 13.221698155844935 7.007697607367538 17.557442833556102 -5 2 1
120 2 0.3373759579503077 8.589241211726822 17.75815198784365 -4 2 1
143 1 1.1771629984986447 9.33717192277463 18.960229999699113 -4 2 1
32 2 1.2385242264134382 10.913683956250464 18.60286794294886 -5 2 1
88 2 2.6549582483990384 8.64531906220084 18.84511472510004 -4 1 1
77 1 5.514593070563178 9.79933419015527 16.737115387871775 -5 2 1
121 1 4.036525364746464 9.176940641846118 19.462182263446348 -4 2 1
29 2 5.201424953574319 9.062572043877493 18.250117271197386 -5 2 1
80 2 7.09282987350704 9.507439722019722 16.521280772216652 -5 2 1
108 2 9.63196586523826 10.49347785187434 16.996849294308102 -5 2 1
60 1 14.585491265791184 7.524254539176071 16.793379811029624 -5 3 1
196 2 11.310310580503344 6.979457911414921 19.057900812708432 -5 2 1
199 1 11.793580474711197 7.608734903141733 17.64379397777113 -5 2 1
62 1 11.197274612474263 10.676763182525642 17.26157086298428 -5 2 1
140 2 11.810577632447211 9.22470707937523 17.636059707703083 -5 2 1
175 2 0.917136128869721 13.065467350268795 19.947807608056376 -4 1 1
52 2 1.100092088225718 13.436821207601115 17.25206935243098 -5 2 1
185 1 1.5994965592109078 12.581033770295363 18.518819596283024 -5 2 1
152 2 3.256387081958733 12.63825777414913 18.603030288254327 -4 2 1
215 2 5.297902319863238 11.393462145967234 16.922652412289196 -4 2 1
130 1 4.331161439789452 12.244041587794191 19.656926746256076 -5 2 1
87 2 5.552220259489852 13.94154341392499 17.131187291045617 -4 1 1
181 2 5.9870208888714345 12.268940853944738 19.531285984631374 -5 2 1
149 2 11.520233312341556 11.86860437083427 18.36670606080793 -5 2 1
169 1 12.010270421630254 11.746865212233338 19.900379087303868 -5 2 1
147 2 13.565837777023486 11.852530286694991 19.998598507644687 -5 2 1

Velocities

74 3.1416819987276368 -9.775558423874344 -0.46375325311097715
49 -4.773389336992203 -1.4044041623326207 -1.2866252389216843
281 -1.9173673918061247 2.5154883463807147 -3.33278651319168
207 -3.811285557564097 0.6951870862014055 5.242295297519576
292 -0.019325791098200835 -3.3831611828033883 -1.3136175990928218
133 -5.872799288622551 -0.0047590234406517514 6.220307809008449
81 -3.4332304910998412 -1.2115315399389717 1.61596801308321
164 3.6017960455080877 2.617504328474656 -0.22342879143258343
208 6.563935617611038 -6.045461572877224 5.4235846108175245
223 -0.8408355524716308 -3.547051031359699 12.421057928557527
91 2.2512429584722136 1.2494258942899101 -0.8352869331680465
162 -4.889863353243738 -4.373634955554034 -2.6468330379741674
242 -8.619277136898974 9.439135131100516 3.3964732650956164
201 2.971755732274835 6.155505520623856 -0.1815413745710138
163 0.2637817371755871 -3.828631793106294 -6.552246388550339
158 -2.542057758914566 -3.994027506138203 -4.314753039535153
170 -0.17262265313453812 7.106078473018723 3.0753377844555936
176 -1.606169271995907 -6.845473150719943 -4.608348344387308
96 8.220982939459843 6.068799891673856 -1.3931619755462947
100 5.631961713733376 -3.9902624352007305 -7.955167399864992
220 -2.477973130687446 -2.684065232935664 -0.8179079545153304
28 -1.6435013240848784 -3.1367015356237453 3.647864153107816
90 -2.9732444286841178 1.930693639825306 0.6950817665640556
189 6.76561279987384 -3.356847658053929 3.593608348290141
23 1.682586260067544 -4.288085851126525 5.314905864408286
267 -5.8386187481835465 -1.2212336612979886 -1.4731185797249182
153 0.2786724982641974 -3.9848702971888668 1.2039423636499824
161 -4.754889096770588 2.2788710978567916 -1.3673897131651598
127 -4.34027143876181 1.220934502506471 3.1441624065171623
79 4.122542979257263 1.5569213659005163 -0.6753103547980086
78 -1.5132537567235242 -5.523871655054439 -4.634725149141453
117 5.872813450467013 -6.097881260929202 -4.586321167645186
21 1.466291222781551 0.269152559770474 -0.6836661052752901
192 7.341399155663925 -5.611416897796838 1.096007907711461
7 0.8452691283965296 -0.5282790327666297 2.26105980731694
159 6.753704280985532 3.5216101437343195 1.7052303582955544
160 -0.6028860636774884 1.6901730611855732 -3.281676795432092
3 -3.3378169068205423 -3.617999776120508 1.108707144225574
125 -3.287893601825925 2.080997532927795 -5.000410776544255
94 -6.00462358142104 -2.3442609099739786 -10.26451549953422
214 -5.662171220834399 -5.289559141272886 -7.5301168504096285
171 2.9282105161848686 9.48566151355327 -7.098492692551425
112 -2.318362978662781 5.160772843165997 -8.247945718755943
240 -4.574807490068726 -0.420020301280859 4.86301172936749
107 -9.909959827956609 -2.988775246675343 -3.1445690555075907
225 11.704111640489286 -9.473985485856899 -2.8331010517021684
5 0.6456412349227496 -6.424935813587063 -4.234079499260704
244 3.270634781212857 5.370221102896638 1.4735062017102183
34 2.2087668906364297 -0.17246987167226865 -1.8678179704329272
202 -2.4049005653729294 1.8985429116850217 1.5047101658594504
250 -1.5677917071224354 -3.371676634302278 -5.182223937573717
122 -10.058817805529157 -1.7561851009663916 2.926377111089003
155 4.195541009916731 -7.857510992581601 -0.43817270777853273
183 -4.296937072851696 3.2742491472775095 -6.367479636978601
206 -4.078962059315534 0.4143700747492541 0.32190629056345316
237 12.485288612379602 2.3255229747466264 -0.9751977305520102
82 -3.9721192478819387 5.6791298710412335 -1.0438411175845121
157 2.652209311038651 -5.9133432332554765 11.661490756535736
54 6.317871070400246 -4.8750667516316595 -8.300682741701452
218 -3.2142623496024934 6.211283505415339 -4.118373604534075
148 -1.4470576737255374 4.288638235562784 -0.46696901728389345
111 -8.583155700915427 -2.171381507582168 -6.669153699345323
145 2.422594972391167 0.1648130902698451 -2.031036298321157
101 -1.3428819839475505 7.7187928546337545 -0.3909588540717444
92 -5.27529768841799 1.7674427869074691 10.84178714279073
245 -3.3578030127446414 -2.9629191083209867 -4.196010702633929
270 6.925125665449769 -2.3519672113456327 -0.9807917693806875
247 -6.099307823107574 3.083201792269887 -1.3037455776471092
210 0.5615517771980788 -5.087026459743657 3.1815964825212117
228 2.1720241038423724 -0.21308449943744745 2.5683982248496506
42 1.8449384880059843 4.27476811468391 -3.2813223014948827
236 -8.231239142531061 -7.032825609326209 3.264067628068095
195 1.0916299403057443 0.12316739467359387 -3.011061528532875
182 5.724941391753707 4.969610991469215 -9.40752728427641
97 -4.272503399802459 3.454764234703631 7.8592287881646286
282 0.04893257632523687 11.82833686567906 -2.396259857477124
178 6.26402367296466 -0.7608278477913724 -2.0928170905689236
17 -2.7647781511740788 7.617006674263461 1.2856782596118106
268 1.4163538905486113 -5.955671544281137 -5.095898315384134
243 -9.25130346213362 -2.234112154235382 1.7569028243225553
154 -2.8280735605000746 2.9023759052796962 -4.379201966225235
84 3.6140965595233605 2.990497415859745 -0.27096522373372695
190 -6.072627636662608 -6.4015509590651725 3.7771879180187335
248 -1.7153295570032268 0.3342672088352934 -4.160850698252603
150 -1.3838482712225921 -2.667255057067446 3.132234165366416
232 3.5199200842806624 -0.25452149956369774 -6.252091892788956
260 -4.733789197216137 1.9578129387398628 1.3433696748948492
64 1.9200154597159955 -3.7835245385332303 8.402287235544113
254 2.7067064718378044 3.0453146048476087 -1.1710924817560138
165 0.657220417922114 0.5055447495426487 -6.8768783599930785
226 1.339077242659687 5.362489434782541 1.592316036883122
246 -9.000716631848489 1.1328475705479026 0.3325200741304564
180 3.275500121892085 1.5047192800168365 0.7861753045231497
104 3.6342880219136027 -13.765010704839868 -1.194475304555059
172 6.591158151973535 -0.7124568690323331 -2.1186957807642366
73 -3.4128965000847726 -1.5848030605257892 -3.573952874292104
285 -7.018382222986589 1.46653274094543 -0.5926856179666158
191 -0.38486627978487387 1.8207929794346647 0.5822154989221268
168 -1.4525824439691875 0.7054377988628449 -3.197029340175114
265 3.2513610139163003 -1.1954273893894394 4.6432109999123785
30 5.25446688159856 -2.5815958751499832 1.0506195823200908
219 -2.1197094335676328 8.64146080173025 -2.740750684143234
261 2.0209106457757575 1.5756337057101963 -0.3965472650725771
141 1.7562204817946712 0.06634705465016615 4.734529380970288
110 -0.9351712975877732 -2.170470068552119 -7.497006932465874
222 2.2204834854532267 0.18433589254556157 -2.2222652013213198
229 -2.8966893735577597 -11.879407486645526 8.143672718450794
278 1.8552647223196361 4.187181350457942 3.7225138473820643
119 -5.224940498952058 -4.955148891234974 -1.435923327863342
2 1.1921489019237363 -6.497609164563627 0.1952998830155822
179 -8.48050117910446 1.9073646676777938 3.166117528409748
203 -1.6924726419762142 -0.05688370606969199 1.5607621442270028
275 2.3486828296095363 -3.303366987781325 -2.943413531603704
174 11.077712393815807 -3.586724581982987 -4.291010232323567
213 -1.9461285308320784 5.870873793431447 5.798111305007415
216 -0.8748847851607675 4.248957945544097 6.973500705558525
286 -0.7963182935967966 -3.4464888082148097 7.907755408243019
221 -6.34609261517118 -0.2564242439137141 3.4660453514269505
217 -0.8543227329429108 -6.605351247154538 -2.568770156700704
284 -0.5736256087219902 -2.2519833863567116 -5.992691429986626
290 5.562999009210353 0.6233225579410063 4.008552689519046
166 3.4449962339464464 2.9236613291115856 1.6978510253254513
272 6.358742971078563 15.136302304970874 -0.7357086898241744
144 -0.8179820348242707 6.239659623805374 -9.294707354451184
294 1.0551322509631544 -3.3442345748260145 9.272516657996372
253 11.210196249176095 1.1304001979093068 9.250749307736301
209 -2.0034261805278724 8.495800178984329 -1.8945885630117707
230 1.332780722973421 -6.2507754127216435 -5.844721707088113
56 1.364145491207969 2.775826528797459 4.653923048752691
173 -5.367147291160422 5.020737353097271 3.713187950555069
9 -8.623027764061467 -3.231196674026513 -1.3749360801439745
41 1.4415588958210228 -5.200688403405575 0.8447475372575071
212 -2.035080684445583 2.3614003944152984 4.851938163856909
187 -0.17388340544342828 10.19364575997701 9.949789525824285
11 3.506179245820779 -2.3172326176516096 -3.773182582196318
136 6.362464602481503 -5.699299594809383 -1.5956633973897743
234 -3.3157552483198836 6.227971425139641 1.3791395878153037
238 -0.00670354543165541 -4.045300834704853 3.67176213049986
8 -4.82880288572647 -2.9247603542372294 -8.75579044807178
13 -0.5501275875008318 -1.156553984681048 -6.6880251716205
103 -3.9219815559392877 -5.471271771904143 2.532996627978074
233 -5.45826935464488 1.4787510516094378 4.138553290579286
288 4.941983641026888 -6.782291899861371 -4.9039901221165865
296 1.2072044502012012 -2.3531534699753327 4.6281262570764765
50 -0.38557988234423773 -1.802579943521092 -3.1158957088726087
16 -11.101057180714081 -7.630223636018202 -1.3308849222701964
53 -3.420947180849714 -4.337397063362009 -2.8146997321248004
252 0.2782627182994389 -1.2302053143062053 0.8810761124103496
38 -4.773352805179832 -3.2763902048359146 1.9923406848263006
251 -1.13130467692309 -0.65738349149065 -5.385649765809204
43 -2.2743676946973577 4.762140684737047 2.8200986828917673
95 8.907115943374478 10.631775592033915 -4.0862982520507645
231 0.15270031717562824 7.585872674957025 4.494008122856712
271 -3.815984616300412 15.511051920694994 -4.016060431696513
26 3.6572626689280368 -1.1845782516742067 -1.6246447327396198
291 12.05348492016595 0.15528123355162485 1.6332263712830384