(written by ASE)

6378 atoms
5 atom types

0.0                      30  xlo xhi
0.0                      30  ylo yhi
0.0                     200  zlo zhi

Atoms # atomic

     1   1      3.4185659678197493      5.7712227373748171      5.4979799176716142
     2   1      5.4712942031247831       3.800968125764121      4.4769251486933044
     3   1      3.5809802665182868      1.5231727089569809      5.5324765799076161
     4   1       3.178585590854019      7.1747904105400027      2.7980615916849771
     5   1      4.7449724844971666      4.7824670079893039      1.8134574774476564
     6   1      2.4121539437226458      3.5841027056169352     0.32113352187595012
     7   1     0.22737537229684598      1.7126201586201151      1.7217996465426211
     8   2      5.3298129609615277      5.0051182221686563     0.30912355372600331
     9   2      2.0665109687571124      7.0254867879674379      1.5493552405692625
    10   2      1.1757952241100205       2.612530863385139     0.84261748865580444
    11   2      1.0409287419554887      1.0183643578303432      2.9616963547985335
    12   2      3.3606628449260456       4.022413245267674      1.6191270576411156
    13   2      5.7892068031873185      4.2194333602854579      2.9128586720564584
    14   2      2.6800834189250948      6.3493349988461292      4.1490685087950254
    15   2      4.9177230102747629      5.1557120298695063      5.2323958190607058
    16   2      6.7572794968742684       3.288308899285318      5.2742924013393875
    17   2      3.2242726135214808     0.34325632190449384      4.4847345583390208
    18   2     0.53482476606829721      3.7653825420602329      4.8742228561909968
    19   2      4.3217054464294913      2.6874839005441737      4.5999750943316187
    20   2      4.5108075660136029      6.3585928646041916      2.2713128570283772
    21   2      2.0950350479437558      2.0393111684092271      5.9992835010396099
    22   2       2.653560944495001      4.5627083117312219      5.9993974402506698
    23   1        1.42511111144405      3.5040557707108979      6.1845750355447349
    24   2      3.6228000302901591      6.9981631641863018      6.6377424043237738
    25   2      4.5049465001419282     0.82039751077047529      6.7124780203470698
    26   2     0.69030646030788934      3.7083624054080695      7.5988204279085299
    27   1      7.8496600202478142    0.093689878971744855      8.6906106547000501
    28   2      10.490809326444877      5.3696147988047231      0.7295269632680359
    29   1      8.2083072792022609      3.5122777987281708       5.948892871386974
    30   2       5.283899295884563      7.4781913531837976      8.8737516262082927
    31   2      8.2464676084897341      4.0052221482785235      7.5095541506677632
    32   2      7.5972043832345859      1.7292462364607946      8.8772831204634173
    33   2       8.747959088023304      1.9781973920022422       5.887998619581758
    34   1      8.5030856751674264      3.0430609006281215      8.8018072929484372
    35   2      9.6389587378361767      3.6926020261597627      2.6699869868404846
    36   2      8.8829441757038783      4.7207497910664644      5.0354783656058117
    37   2      10.015701482199679      6.3295223767110098       3.035502279008675
    38   2      8.8575317047694409      7.3571245080668515       5.988362805594468
    39   2      10.061681374251815      2.6404665865130399      8.7214189323029636
    40   1      9.4822798219823845     0.55626978485196232      6.2113645724262607
    41   1      10.337846971016791      3.8254296634033986      1.1536695018114784
    42   1      9.9832192659233545      4.8570778240749268      3.7783561598565711
    43   1       10.42685643943749      6.8367254471145662      1.4977361909334306
    44   1      10.215436112575198      7.5826404448745075       6.772789543589516
    45   2      6.2431128710116077      7.3919631926437352      6.3669031127283597
    46   1      0.5343506829978012      3.6593259056260616      9.1623779459781467
    47   2      9.9486526451307302      8.4955083111711875      8.1075350921323572
    48   2      9.2141802414978091      7.6795805985207313     0.81558260989667264
    49   1      3.9100166431875256      10.173540886056289      3.5831960160508913
    50   2      3.4666490031958475      8.6400601282587601      3.4459713813543833
    51   1      3.6162188080113102      10.556078442889676      6.7602426757481844
    52   1      7.6582211526839581      8.2342026133947996     0.44807279632703967
    53   2      2.1300406638634777      10.250254546963815      7.2443090266643644
    54   2      7.3000584644394477      8.6371773234297766      4.3741064826053844
    55   2     0.75187008748495676      10.478141334112491      2.2994670468154936
    56   2      4.6268102131039575      9.3131847955295513       7.041501810760284
    57   2      5.5719180668631871      10.350363213706956      3.3443601913375152
    58   2      6.9135383987271943      8.6663530234903199      1.8145430496483075
    59   2      7.4854601737777626      9.6165667821345782      6.8212472906282713
    60   1       7.022656434046719      9.6234885556262562      3.0973678843190697
    61   1      4.9378332540299201      7.7489662127591572      7.2941590644943908
    62   1      7.5200537047525664      8.3378376724045271       5.949115344867991
    63   2      5.2436772797433537      13.678446590538407      9.1007907419503766
    64   1      4.9709374976675864      12.088210415699645       8.890282989014775
    65   2      10.636390912565835      11.970663443580364      6.6651573508250062
    66   1      7.5732022907418948      10.830382897396619      7.8525157587988339
    67   2      8.1172060783670421      10.777715142947955      3.0009295730293246
    68   2      3.8313450637177255        10.8814384182573      5.1003882439695118
    69   2      1.0226020270167135      12.556970172923961      7.5854424077025779
    70   2      2.8410363470074591      14.342070053801615      8.3007363465745385
    71   1      1.1010243674627176      11.094363301188789      8.1742669551870115
    72   2      9.7013582189971039      13.194331824400848      8.7724267578025223
    73   1      10.111557788545907       13.03740689644488     0.20790204422883818
    74   1      1.6813204159901876       14.66699422882539      1.8544703575657593
    75   1      6.8861470211288838       14.76399640682116      3.0652920464835418
    76   2      1.7837830413606457      13.076715032858983      2.2358082353527777
    77   1      8.8355423688294135      12.229103359432878      2.9515914303136697
    78   1      9.4851938251104819      13.011546207496064      7.1703949973202414
    79   2      8.0480456189629592      12.210221509595357      7.0584497755274427
    80   2      6.1841919014381377      14.721316478898578       1.600000610794325
    81   2      3.1724618959893758      10.958190630783227      2.3526669506829592
    82   1      1.8120319818227677      11.580628482141691      1.6864489289613191
    83   1      1.5437229751054717      14.130620649495068      7.3468712709200981
    84   2      10.205438855830399      12.097452602239462      3.8103635754861429
    85   2      4.0987236263104228      11.904261741303666      7.5148458025946221
    86   2      1.8239636513514188      14.697296040940614      5.7594454547733847
    87   2      7.8042896219540294      13.435529593066065      3.4811265921998924
    88   2      6.2398638487689828      11.139483338237007      8.6700822135156663
    89   2      9.3511827103093541      14.439959949550543      6.4354403440252019
    90   2      9.3618005998700173       12.27488970384309       1.395045840796314
    91   2     0.16358973321015555      14.941057303115688      1.4033306428386538
    92   2      2.4715560209201848      15.046926271680881     0.50537630474762807
    93   1      4.2022245546212753       14.96723305255663      8.8332433712631406
    94   2      11.542260584069574      14.191750347568556      4.0790084778630771
    95   2      12.974823513239425      12.637019610822497      7.7435467776583247
    96   1      11.737989497493366      12.647579168244098      3.7711752460020378
    97   1      12.265992834875201      11.746327960930385      6.6257328150546098
    98   2      11.248775922741773      14.248604155519274     0.55865582917431311
    99   2      12.528544166981499      12.222622396603811      2.4144075648326648
   100   2      14.854095589961455      12.497625334323105      1.0328155295476336
   101   2      14.721082845647608      12.877534917320453      3.5951732083430983
   102   2      12.636032831193752       12.06294680770386      5.0429059281059168
   103   1      14.180401701596033      11.930112851183644      2.3954941511010333
   104   2      15.720656671265248       9.152552905048454      4.4520709885220668
   105   2       15.90475201916272      5.8603471039368822      6.5195143404722486
   106   2      15.739429512770922      10.153984469489057      8.9625949700519865
   107   1      12.652904486688014      8.8661605259766532      5.7283748667920165
   108   2      14.543092728931523      10.393825705067353      2.4352338055142297
   109   2      14.422059022993899      7.8452148034771954      2.4431666143231894
   110   1       14.48435402393422      9.0994430855809973      3.4087492528982466
   111   2      13.034596219330314      9.2484007051137667      4.2342620126092712
   112   2      12.802546315846492      10.095158044155639      6.7866479195018066
   113   2      13.517026721872371      5.2458014253481684      1.6213435135265826
   114   2      12.001111879370045      7.4238381231797206      1.2928467211687433
   115   1      11.261173729261243      2.2282823819661037      7.7136853468555868
   116   1      12.535694432555882      3.8273466525974826      5.3305661535658473
   117   2      13.749479111634631      4.8952870788271916      5.6429197739103998
   118   2      13.009348359175373       2.439800532428019      4.5826302941731427
   119   1      13.300847419396293       3.897336616471538     0.79166841190202319
   120   1      14.760087568801817       1.327810818124707      1.4668969309415019
   121   1      13.327469931480351     0.82296873289053118      4.1594092288408504
   122   2      14.521774238036294      0.8544066029767734      3.0140797921138756
   123   2      13.786119759416007     0.51769714392830934     0.45808602153964983
   124   2      11.831514343002882      3.1578942618485639      1.1954252266560417
   125   2      13.593121958925794      0.1415522297458317      5.6026810082669201
   126   2       11.60874227487165      3.4527644854194053      6.6476831145547894
   127   2      14.516092378912134      2.8810652209281038      1.2250263347453441
   128   2      11.440760490793089      4.5915987245113739       4.377041566588936
   129   1      13.573951573762569      6.8784831718816166      1.3157672717355879
   130   2      11.965292148733999     0.18449426424799498      3.4656351797018989
   131   1      14.237122455798465      6.1330438166980779      6.5163658330290568
   132   2       11.12271517643839      8.1969653009625603      5.6491264875279015
   133   2      12.560395254943177      2.0557336596047997      8.7043714219140735
   134   1      12.170344429006093      6.0439344241083592      8.6317267969499607
   135   2      13.673572611096754      6.0635609878918508      8.0598814441879369
   136   2      13.734585046739491      7.6229775666772586      5.9936590351565622
   137   2      11.002549139011444      1.0185441719884416       6.661132769440016
   138   2       11.01573199441631      6.2411692646214068      7.4353955676545693
   139   2      2.0338911374149937      4.4398015942844831      14.271926722317044
   140   2      6.0121985460855782      5.4846663763296677      10.531303952370887
   141   2      3.4964517169667975      5.9044346626019033      9.7052410555195614
   142   2      1.2822456266118802      2.2470188076891331      9.5464017984150349
   143   2      1.5753279674687748      0.4764729414565238      11.567428186157917
   144   1       6.989463780148542      4.2876240284045082      11.159495533109451
   145   2       3.716094343392629      1.9921790258644714      10.848698696186995
   146   2      1.9727085785639131      7.0151200077555362      11.560188590810313
   147   2      6.0652043060530891       3.039088106732148      11.673555138617157
   148   1      1.9783697085609151      1.9234965909230535      11.024852017191472
   149   1      2.3711681077003663       5.620863346398326      10.824118646853679
   150   1      4.9055011038543768      6.5893587167777161      10.219703090587821
   151   2      1.1782953875441384      4.9190652754998467      10.018068906953161
   152   2      7.9274377928069777      4.9842761207512352      12.325251066120366
   153   2      2.6479706571371295      6.6874878291940556      15.231274991145543
   154   2      5.4119215261446341     0.73087019591236502      12.627802439222876
   155   2      3.9768933572450464      2.8540462681186525      13.374841716025216
   156   2      1.1217733557540379     0.68221055638522965      14.232207342976407
   157   2      3.2161056316006942      4.9170330276370242      12.040862866971347
   158   1      2.6677490623196753       3.753780405171057      13.005466792874101
   159   1      4.8265285641277904      2.1448787988216003      12.106394761077379
   160   2      1.4565860406612963      3.0095303590609355      12.150609236918404
   161   2      4.8806225292723138      11.245326757113794      15.377622305408092
   162   2      4.3180690163916902      11.673427104982217      10.299151154854924
   163   2      2.6352590857332414      9.3009074401058935      10.882255297910849
   164   1      3.8579908696362604      12.348776228184454      11.769749462544532
   165   1      7.3342429787475725      14.458862439175629      15.432225638652348
   166   2     0.91664012494057889       13.62276270107361      13.233209700552099
   167   2      3.0534565941552749      8.5787408102921052      13.414614500262893
   168   2      3.2340776886598119      13.877574383480141      11.628850674189046
   169   1      3.0179622333279372      8.2735374782881266      14.996321096233189
   170   1      3.1348449589294147      8.1226864416740909      11.902660316699526
   171   1       1.572264849719843      10.519838537993204      11.186233781387072
   172   2      4.6894396988540992       7.653208424348092      11.504351080129746
   173   2      1.3060398508776054      11.628599897566421      14.738665175671937
   174   1      1.7748887135655549       13.16299513560182      14.535815929978336
   175   2      3.4072683374866513      13.238730163846904      14.454268988977113
   176   2      6.0068958314737531      13.518817025396849      15.157594725680978
   177   2     0.21458259359180398      9.9968426267291548      11.870997892127466
   178   2      7.7155400218574197      13.684120410480812      12.342576590937195
   179   1        4.94338879507964      12.594631626796053      14.431589345425037
   180   2      1.3317533412790703      11.326572344749023      9.7552219529160187
   181   2      5.0614709974410852      12.216173325482828      12.880696606624968
   182   2      2.5680662799572733      11.452022797179422      12.154333774987272
   183   1      9.8277321207831534      9.5238299670804274      9.3535622660205249
   184   2      10.140221635598579       8.824617551221138      10.749581912612829
   185   2      9.4874108819360448      12.115666401918073      11.159916047008359
   186   2      14.413672635291158      9.5056439684658169      11.160772859812838
   187   2      11.488570272661427      13.938009967764957      15.245886931912276
   188   2      11.744042151497508      12.996094270118704      10.279144221793359
   189   1      10.410989485191665      12.214363813490474      9.8469034392623929
   190   2      9.9899521165991949       12.54237479826085      13.514575359783299
   191   1      10.166083104069884      12.877945590595493      15.150065166400523
   192   2      14.028087388486984      11.955114713605891       10.13150354655188
   193   1      9.3026816116420736      13.348229213573957      12.224170241100092
   194   2      13.754319184567242      9.8762216462209409      13.556378115131503
   195   1      15.162878538670524      10.793644428534559      10.352729651913455
   196   1      13.056653845177639      13.862055151752545      14.765617878700491
   197   1      13.786637367898372      11.120913332019697      14.525183220164973
   198   1      13.686161088115174      8.6973967211340035      12.456894893932207
   199   2      13.267753427894876      12.522047698123535      13.800111311649236
   200   2      10.130690026206459      14.617886935461325      11.862905580995561
   201   1      9.0209563727143376      6.1833731097138758      15.366097199791747
   202   2      15.221771080242778      11.534142896206905       15.21646228076732
   203   2      14.190749691442399      5.5857194155405185      15.010002017614033
   204   1      11.150879044924888      7.6042394244094655      11.073096018000024
   205   2      12.182526865476458      8.0894475795321039       12.27127353330177
   206   2      15.524924277203938      5.0589195678197383      12.773856810381648
   207   1      16.108969128606972      3.5301239148948165      12.689521223497108
   208   2      14.915148676736074      2.5622814032546963      13.288896398559372
   209   1      16.109274936782381      3.5347987767691627      9.7774648837393183
   210   1      9.4857537391848066      5.4443913205077967      12.470122012640665
   211   2      9.4042056242044172      6.3108753469053349       13.81403681974642
   212   2        14.4653030976975      7.4105365454410776      13.086849128383735
   213   2      12.448066035084242      2.7466348654905022      13.699098960858302
   214   1      14.208510603011158      5.8218564258021885      13.370395698393555
   215   1      13.635994346982239      1.5859175465396333      13.606939836976728
   216   2       13.57648650627339     0.51135441404703508      12.390338816922608
   217   1      12.023199464147121      3.7677190413642911      12.530372714331495
   218   2      13.468292621795319     0.97951532052014212      15.138638344065077
   219   2       12.76203536221843      5.2449457894348184      12.707863392317067
   220   2      12.576616265580897      3.0466051962539851      11.198802564173269
   221   1      12.924192618534706      3.4023638134073821      9.6267297991602714
   222   2      10.483877851468268      4.0838241969583535      12.633918594737054
   223   2      8.6383597620787249     0.41437025469306693      15.177882073557599
   224   2      11.999930218921055      7.1360718783646506      9.7581991069620955
   225   2      8.0818922315572994      3.9554542895789733      10.053252627472025
   226   2      10.213984834091363      6.2923656267593016      11.308805954448669
   227   2      14.532595036914229      3.7295407421326097      9.5176428561824515
   228   2      11.925077132612964      4.5615532291567158      9.2295177264861668
   229   1      13.090751865793724      12.980620426001082      9.3588586466876293
   230   2      8.3514234577121549      10.151991114823621      9.1661761228990759
   231   2      10.900807553527775      10.772138965183212       9.251295667895663
   232   2      13.523014325292166      14.513370476310694      9.2844550743880987
   233   2      8.7047457251437557      13.564170823676807      15.546353185341138
   234   2     0.38021311913100597      4.4988618847609168      24.878957366033426
   235   2      2.7895302301128555     0.41957862740134955      24.003866204556292
   236   2      5.4690930274150924      5.5971719544768934       25.23979990785724
   237   2       7.219596782807109      1.1071201234615879      23.796333393761401
   238   2      1.7444337029193251    0.095984178201760209      18.595146154502888
   239   2      3.1181181544660985      2.2469502605396339      18.699023899099132
   240   2       6.010539086379918      1.7018796864864494      18.863364477193471
   241   2      7.1570805577515983      3.6407598633769203       20.47314120435637
   242   1      1.6971273456570408      3.8177773184905832       21.70763200927712
   243   1      2.2306122668508639       5.200113165126524      15.674385783863135
   244   1      4.7658747441283964      4.7729214192328735      17.340722021103648
   245   2      2.0749036765677666      2.3753846934670837      22.395227970554071
   246   1      6.2342365528066832        2.27808348442748      20.398784805109621
   247   2      4.7445530725832903      4.2570227164667784      18.860948687785946
   248   2      4.6972793261499497      2.4956572548003404      20.877953140741297
   249   2       5.767511376279808      3.8135858609903033      16.571598583360871
   250   2     0.33799388859796259      2.3551519416200186      18.900189800982702
   251   1      1.7232903023996715       1.742794738570647      18.236808587112822
   252   2      3.3336994152344239      4.5880242033824388      16.695906002034867
   253   2      0.2628966918878054       6.595336564449247      20.965650122494623
   254   2      4.6688335925675881     0.20880225375498931      16.867288282657409
   255   2      2.5357344211212012      4.2124210531671915       20.34210355809952
   256   2      5.2919971696863186     0.21745556429966623      25.926323885812831
   257   2      2.1322706395095565      4.9512175556457816      22.782747401108502
   258   2     0.83689495780169909      5.0822238901154151      16.437793507088344
   259   1       3.787213897455147       3.335107291320615      19.752632379052613
   260   2      1.6461761732734796      1.7966177816055771      16.605353075129361
   261   1      7.5446370064542849      4.9983412281618911       19.71135470635917
   262   1      1.7175524521577008      1.6339742716288979      23.770772335107157
   263   1      5.8091635246679276     0.31971980809825279      18.082884261050538
   264   2      6.6812131549955067      3.5830090665549887      24.012502690785645
   265   2      6.3647892925677247       6.136445224808031      19.712416622881328
   266   1      4.0386240494143424      6.3327657470006349      25.507315042919455
   267   2      2.8144477817854212      5.3516793608386015      25.339007579750017
   268   2       6.372131920929327      5.9866026761796052      22.800344859974686
   269   1      1.5607711512791229      5.4756753848695059      24.230471018514503
   270   2      2.1125959945666599      2.5842720991378538      24.998547246855392
   271   1      6.6882063306356896      5.2175570587605815      24.254521337775941
   272   1      7.4573857527741376      2.3923346614629062      24.737873720519104
   273   2      7.2296116269521544      1.1727730412969639      21.033743833110687
   274   1      7.5257335823615437     0.29116743775948833      22.423122248734728
   275   2     0.11723312345711785      1.1090425456873245      23.789819039067137
   276   1       7.439186452322013      3.9558992307229706      16.696027340504109
   277   2      7.8476713932512112      4.6027961549601288      18.143493096074021
   278   1     0.51120330517561852     0.98749619762253782      15.690865552285288
   279   2      5.3228242581982013       6.328277284209662      17.390287731099018
   280   2     0.12388964297506888      3.7057589187713491      21.213085841741766
   281   2      0.7614401421648106       6.770850132169195      23.732164231574991
   282   5      4.3408094182615509       3.251708075475527       26.07356647678521
   283   1      4.7324659060521332      13.735430777349784      22.768473426662855
   284   2      4.4077218595242904      8.6618306509474721      15.679490987324412
   285   1      5.8792158918496025      7.2554527657508485        18.6237295483465
   286   1     0.70792850166659005      7.5579430039530981      22.263004686379684
   287   2      3.7147726739446276      7.5063934342022263      24.453780999641534
   288   2      5.0049717667226483      10.278630882189979      17.770223088965704
   289   2       4.854664469222369       7.996835543649091      22.047786117859687
   290   2      4.2832853059822931      14.945653156705628      21.789284401370011
   291   1      6.2721787393694717      7.6071122132519902        22.6797921240622
   292   2      5.1237440382636441      13.117373040968443      19.345985000703042
   293   2       3.524938225714676      9.9173082532263486      23.479238403692829
   294   2      7.4406947804500749      12.508983412291068      19.994620916377674
   295   1      3.5430683035635817      8.9639282616720646       22.05939368446187
   296   1      4.3310461859997771      9.8127381854723996      19.328312868673279
   297   1      7.0091744419248467      9.0285171401301092       25.42888462024948
   298   1      1.7010773388819493      13.459571629114393      23.529625242991198
   299   2      1.6318737276498354      13.582536211046227      25.170694615474016
   300   2     0.90268800730396781      11.197240376542828      17.299719467115686
   301   2      2.7181462459040113      10.042190293993961       18.71294292535487
   302   2      6.7538569979140961      10.685552846808271      25.242720346428381
   303   1      3.3157070487672766      9.0962744729688225      24.875950381838059
   304   2      6.9470089856509931      9.6521165623322425      16.015375220970927
   305   2      2.0396332064874909      8.3632922818618241      21.916785399587553
   306   2      5.6320687008483086      14.520577745598708      23.891327912283238
   307   2      1.7151732863887315      9.0642852710672379      25.499833520521737
   308   2      7.1803577486112573      8.0458659606257985      18.058615818981274
   309   2       7.497361199989486      8.2178683766226825      21.876770456496295
   310   1      3.8137387245459657      13.721131835989933      18.702198875778329
   311   2      3.5472476832405677      10.012426728256306      20.877556554817318
   312   2      3.9754028793316061      14.086732639165481      17.062264141971902
   313   2      5.5881091067153594      12.666082373924024      21.928567323156322
   314   2      1.1770809296202323      14.811522416617651      22.735529883800812
   315   2      6.2973100699647135      8.1602166824376052      24.278900818938531
   316   1      5.8684130467149869      12.198312844081947       20.37379979498704
   317   1     0.98959459951976692      10.514883703968597      15.865889384092323
   318   2      2.5194281914076617      12.828414199817727      18.917518438238872
   319   2     0.47875677975822256      11.278187830678885       19.76596515045911
   320   2      5.5945113262674875      10.594110798605882      20.076413725459307
   321   1      1.7230789325751454      11.292233826443969      18.760744934840417
   322   1      5.2931581336589142       9.957864867196065      16.202840416389158
   323   2     0.79735842076978392      12.131936644431406       23.18585614945771
   324   2       3.300837497481024      13.098488252350206      23.266542991543787
   325   2      4.7210811602208453      8.1616940312827886      19.273246966830413
   326   2      1.5248287555829223        14.1855692924777      15.831851274492948
   327   2      1.8881097607481538      9.1462167890611887      15.738758640492504
   328   2      9.0018548023330105      2.8765816976848333      24.727740114572114
   329   2      13.470031951655397      1.5296510266783121      23.746292828668199
   330   1      10.186052754649364      1.7610127717848518      24.581238846421897
   331   2      13.082688353387987      4.0363035728803478      25.162083626905581
   332   2      10.801515294029599      5.2205983477549465      25.607836640822484
   333   2      13.725853169791586      6.3082627853382363      25.763544434471164
   334   2      11.523796475042355      2.1324714417536792       25.31829840175152
   335   2      11.268066249985505      6.2911736439487624      21.414141072692281
   336   1      10.500209240101258     0.42811251643860221      21.930857143416297
   337   2      8.8860034494219491      5.6574512709600979      20.415002665693354
   338   1       13.58173539349063      1.7147598936315589      16.603013449935389
   339   1        14.6053656783363      2.6643064522348774      20.866032968346488
   340   2      13.496190154988595      1.5601680653333607      21.119751296617299
   341   2      10.303837408964867       1.755081037123063      22.915191859018879
   342   2      14.287027317794148      3.1095202215758095      16.373475088434105
   343   1      10.414186286449256       5.255251642886396      20.392031050655564
   344   1      10.807687398151412     0.58883433649888983       18.73235838261628
   345   2      14.370205752507779      4.1665051433040698      21.379839817637759
   346   1      14.170426782080341      4.7562205740895678      16.365199830958346
   347   2      12.772963616028424      4.9392145730928325       17.12198821096808
   348   2      12.006387853246782      1.7831903103945559      18.589535294025911
   349   2      10.487463823289058     0.64450246045611026       20.30547287114992
   350   1      13.317482907618507     0.55263294493060477      22.433298333486576
   351   2      14.547920033368342       0.818162936678413      17.577541270292912
   352   2      11.944432469823123      1.8531918763518733      17.129570526321068
   353   2       9.636928281292457     0.84653272950695868      17.738020892866359
   354   2      11.718074632040651      7.2780010988780948      17.590079206062001
   355   2      13.253813690044096       6.847851321136706      19.744732289371953
   356   2      10.316217287215387      5.5440399027925746      16.214439790472401
   357   2      10.881436883464698       5.040619911829495      18.825636510491325
   358   1      11.405847234838262      5.6674926142775188      17.429040194874354
   359   5      10.501363246058602      3.8129714378026125      21.109352064916539