LAMMPS data file via write_data, version 2 Aug 2023, timestep = 13, units = metal

4 atoms
5 atom types

0 15 xlo xhi
0 15 ylo yhi
0 15 zlo zhi
0 0 0 xy xz yz

Masses

1 28.0855
2 15.999
3 12.011
4 1.00784
5 18.998

Atoms # atomic

4 5 8.318684267498874 6.835513142001188 6.774213305166879 0 0 0
3 5 6.354541963781553 7.742551570117121 6.903804335048698 0 0 0
1 3 7.572749102467426 7.716930398146917 7.422671821086751 0 0 0
2 5 7.507840566918219 7.393079885337231 8.705282981657547 0 0 0

Velocities

4 0 0 0
3 0 0 0
1 0 0 0
2 0 0 0
