(written by ASE)

666 atoms
3 atom types

0.0                      20  xlo xhi
0.0                      20  ylo yhi
0.0                     200  zlo zhi

Atoms # atomic

     1   3      7.0841132359834136      5.0554732964023055      12.791715253593999
     2   2       2.800474271323012       3.219788474816816      12.097176912511216
     3   3      2.2387923818883952      3.2026078531756608      13.699693748704183
     4   2      3.2631307145033395     0.49735747522308593      12.829887390519728
     5   2      7.5737877638555062      1.3127447527515532      13.605846415480087
     6   3      6.4231015174123751      8.0053560281910805      13.377392139304009
     7   2      7.8260829616966499      7.9425682409728502      12.496153773974354
     8   3      8.9757561899340814      7.2682434747160869      13.637445656418915
     9   3      1.6644845069503234     0.48757461082807219      12.833432155935366
    10   3      6.9549765959529628      2.7883073938246579      14.110952593140661
    11   2      7.5905411647872345        4.33137239097994      14.116380108154022
    12   3      9.1433342389882561      1.2447908206901381      13.966894405269874
    13   3      4.2815583155409831     0.91322764908649212      14.111446793671123
    14   3      9.2054827933344239      3.9774118467607176      14.446485483282554
    15   3      19.839515281527898      1.5100379337344894      13.936226073633666
    16   2      10.046954648320272      2.6318864581371653      14.017172924782772
    17   3      10.198558365061107      3.0499078478946262      12.379507782548563
    18   3      17.669725750258628      3.0912317922404009      13.446830251804922
    19   3      17.139661082539355     0.86756659919389656      12.350454074639819
    20   3      11.613295661770236      7.9082515159421582       12.90744593461617
    21   3      18.148863163825112      6.2749970322366586      13.442489616781865
    22   3      14.133800591900281      9.0283634948192102       13.09584810351766
    23   2      19.102313238299679      6.9497502983438286      12.111653320891739
    24   2      13.672902183641941      3.5387405106520591      13.552104992073787
    25   3      19.492890367383751       8.397569244284897      12.792514280693522
    26   3       15.24134458224478      3.2062559393961165      13.015483269424447
    27   3      16.705620227087774      8.9307150835267084      12.906104958387965
    28   3      13.129345228485425      1.9663761314914632      13.652075168358953
    29   2      13.622558406918976     0.42071915307623081      13.477495165244965
    30   3      12.720295318028594      4.3381177610221808      12.414594634530442
    31   2      18.279572034302493      9.4356528289132768      13.002796986823306
    32   2      12.547556135691131      9.2521290129958231      12.829749614245687
    33   2      16.621685762838524      2.4730613873268705      12.384403238356921
    34   2      18.689599142928454      2.4851299615959088      14.565612838609583
    35   3      4.7427363786852803      9.3767783498600252      14.666764311131493
    36   3      8.2648913042639442      4.2185219426022647        17.5891135009248
    37   2      1.6278008312047354      5.9689882362484772      16.517884956395669
    38   3      1.2336296554565926      7.4901342654117897      15.992909084237089
    39   2      1.4379882311975631      8.9144036250948275      16.794380448954747
    40   3      9.3350920999674329      9.6866123043559185      17.679857415055448
    41   3      4.5771046044291035      3.8855711380600866      16.069996862440966
    42   3      1.5812033127830174      2.2306117973380508      16.320018749861529
    43   3      4.7499543995046238      1.1005415767050213      16.580565810139166
    44   3      3.1964674928444126      6.0401731399844945      17.040621504404918
    45   2      1.3691206303714143       3.365924089777419      15.097082674307295
    46   3       6.570968833625952      8.1315370085832601      16.252044226901518
    47   3      7.6809477874287024      5.6488526519683289      15.100539461548347
    48   3      9.4017302390892592      6.5062903731874311      16.718231025114004
    49   3      1.8241138930997927      4.9107958582078055      15.322927413536679
    50   3     0.57313508603027286      5.4120933447983983      17.597763453463621
    51   2       4.506822809207752      5.5345481323114463      16.219770461426634
    52   3      4.8278068614480389      6.5772877699075547      14.959036941642541
    53   2      4.6927172124645953      2.6509150673623134      17.181056411046029
    54   3      6.7604204421532241     0.38468042093612215      15.273281738455601
    55   3      5.6804489592640675      5.8429288907086381      17.272385961969263
    56   2       6.282757482803647      7.3084108772645902      17.645586923722831
    57   2      5.6753098188085085      8.0216824401638895      14.804406748770532
    58   2      5.0920269022233535      0.2037951982078251      15.289267619235449
    59   3      8.2723603611901364      1.5275551316309279      17.587009346666207
    60   2      8.7425699088022526      5.7859363961921009      18.062313007959297
    61   3      2.9734310472195786      9.0067145634998074      17.319986728700993
    62   2      1.9442863547989264      1.9742462286641294      17.970963250165774
    63   3      5.9916128465272314      2.8945068376189735      18.032323282032564
    64   2      7.5893527090025881      2.9025617284203458      18.177045466272368
    65   2      9.2550980043418907      6.2447996985928897      15.066861336677761
    66   3       11.80123444169795      9.7044272819413351      16.858561019933411
    67   3      13.215314499809194      4.4475227447907031      14.957503851472694
    68   3       18.27837129086431      8.1860349190494581      15.513943886578307
    69   3      17.722882545896471      1.8422715161295324      15.736530221347781
    70   3      10.954359237374947      5.9368261134674762      14.962146793290081
    71   3      19.722350056178342      3.6451283497083509      15.059237938523504
    72   3      15.971129202990495      7.3980059430905243      14.895812379632662
    73   2       17.53007712047037      6.8530780376571876       14.88105467746229
    74   2      15.348107005780216      7.8243920227672881      16.389189442204081
    75   3      16.774440951812821      4.2081883367466855      18.046255841197098
    76   3       12.62788174631579      6.4073333504825625       17.16531620296135
    77   3      13.105577068257137      1.9691419376064134      17.105613637789709
    78   2       16.75478143746443      5.7093440712565782      17.490703833882755
    79   3      16.163183773559339      8.6999071182774657      17.535372708575977
    80   3      10.658906121825893      1.9795727649969352       18.05175526099621
    81   3      15.669434633957824      1.4146596559881142      17.224901944413872
    82   3      14.084893697553911      8.8248763208568555      16.094010231434275
    83   2      17.944640853007357      9.8249351510780603      15.696907949420996
    84   3      11.137867489809381      2.3662377999247655      15.202905666442202
    85   3      11.467932775780307      4.1843541388662988      17.020166483125337
    86   2      17.293041941331037      1.2163028783136995      17.214526714670239
    87   2      12.121266621355534      5.3233578413371632      15.952835775727305
    88   3      17.613527893727209       5.665432081612253      16.067783360320171
    89   3      15.262083793477306      6.3857337516674004      17.173961402292967
    90   2      11.600437420880231      2.5877430965769928      16.849200524010232
    91   3      1.8108559368905086     0.44598070190948802       18.64280073556457
    92   3      5.2261623864121223      8.1566946987602442      18.571424204551448
    93   3      3.4118234005092596       2.700001076920822      18.138553715649024
    94   2      9.5458716807045043     0.70264802197821941      18.239770643448111
    95   2      10.849368277468876      9.4774122301864274      18.170476358004038
    96   2      14.330546528590286      1.6401161346437054      18.159609642712624
    97   3      14.105654276223429     0.35236886363172132      19.104953604551717
    98   2      17.720016297232846      3.4631062158836645      19.154245277572691
    99   2      3.9125197768559454       9.107407012334372      18.674352884577218
   100   3       17.39485171689828      6.6629526217512547      18.640624516784698
   101   3      11.046347957947107      7.9806287163308838       18.65880408103753
   102   2      12.318437065882861      6.9582799194341938      18.738856555530056
   103   3      1.0034352095893557      2.9744912726992641      18.865215907530022
   104   2     0.59950328422055787      4.5570977151690659      19.030049582544052
   105   3      7.6218281586175518      6.9600172281649497       18.44384838374058
   106   3     0.39978884085113048      9.0640792133860177      18.034513252873207
   107   2      16.942204945592785      8.2059557743973262      18.923401142285663
   108   3      18.082325437079838      1.9979394427853796       18.42703637224826
   109   3      3.0381235858109656      8.6584860582632377      20.050684455250689
   110   2      8.8017622199425372     0.45487787636591281      21.413809568581328
   111   2      1.4596890497954127      5.5800823675101547       21.56860061309234
   112   3      1.5137588736268004      5.5888586344263071      19.920529952937727
   113   3      7.3371165148323714      1.1019749516156856      21.756874903595506
   114   1      7.8555066373324509      2.9391436790204746      19.764364996079166
   115   3     0.61400546903256481      4.1465667373904687      21.668115333597115
   116   3      2.0982411931603453      2.0581312259363607      22.332647620197939
   117   3      2.8079447904464399      5.5936913723734341      22.457649964981723
   118   3      9.3946811420909704      5.5056913371701324      19.529082342955252
   119   2     0.70045819856095926      2.8279688470568582      22.556254293646528
   120   3     0.42911788436862108       6.738873879337719      22.121854057107011
   121   3      3.7319812758318771      8.7741225732730541      21.183667302151285
   122   3      9.1456556172182424      0.2450847348428016      19.745495367214367
   123   2      5.9224346290111516     0.67458322079453448      22.476930861325638
   124   3       13.76731544339524     0.10103713889947485      22.039232801941459
   125   3      4.8469467435711246      1.8973485923764144      22.543483792070138
   126   3      14.475234721373207      2.8586824866601477      19.215485614198904
   127   3      14.438940553090287      4.6288832584736479       21.09186102576032
   128   3      14.461835480766103      7.0662003008270311      22.046697978660887
   129   3      15.912771972250095      8.2256402819581016      20.266065402861216
   130   2      15.174158712271865      3.2567606721723257      20.658072040814631
   131   3      10.097865593677644      1.3713255597759413      21.794593499868313
   132   2      14.427920314635937      8.2667483277376022      20.901429978569279
   133   3       10.01725046754699       6.086211695620662      22.061007671113906
   134   3      18.149620216592105      9.2111546944761518      19.246844399491103
   135   2      10.847858889088114       2.677998229065893      22.405164020743271
   136   3      15.027228438548727      2.1661333750861278      21.897183839887767
   137   2      14.577415677089549       5.495897680032372      22.465391733337452
   138   3      13.473311895004453      7.9141743347894344      19.529481416790709
   139   3      14.017560307005681       9.531158582256289      21.929851740623491
   140   3      19.516627173454708      1.8056355540087154      22.064939354931759
   141   3       18.99429176107477      4.4603637621787104      19.408835842735105
   142   3      11.832211625529778      5.8518360334183841       19.86637388089995
   143   3      16.818972537465832      3.3061926989729695      20.492787034019898
   144   2      10.489002720999871      5.3373994952103923      20.731448065684447
   145   3      10.784413010013026      3.8472070174427797      21.232238304182886
   146   2       3.641235719296585      5.3898826550623182      24.042921097050499
   147   3      18.096736154187219      6.7950585378214177      23.629261931634908
   148   3      15.985006231095609      5.1311180190723826      23.144949595599392
   149   1      13.335964261708821      5.0904697005147357      23.413921414174649
   150   3      7.5986179609301852      6.2574461396550562      23.418480847600797
   151   3      17.765522340005376      1.6997411300762499      24.088359954320168
   152   2      17.112218643440187      5.6577789019750826      24.236367219668004
   153   2      19.727156520239355      6.9804552969597022      23.570032086411448
   154   2      13.777678894295127      1.4872479632256173       22.79229330160361
   155   3      3.5029282736859706      3.7140413911584162      23.744074167688883
   156   3     0.38395072844168548      3.4658311840870049      24.012140035739545
   157   3      3.2939697555704228      7.0627395713519947      24.258003715676075
   158   3      9.6158589758524258      8.1211097859924575      23.546136344323322
   159   2      18.931744429328774     0.86643772220540538      23.251978075453739
   160   3     0.33641631279256795     0.62116262443162495      24.043205868991322
   161   3      5.2574790887182612       5.397516573087568      23.811329366669483
   162   2      3.4471123485841471      2.2239418873027601      23.318073986288653
   163   2      9.2392924620718517      6.4585547131085352      23.492059890455934
   164   3      19.963075665307919      8.5322331156726783       23.89826974186056
   165   3      10.018970225853055      3.1207222621123032      23.767562150012374
   166   3      6.1686808346155626     0.18913146925904858      24.033556639425601
   167   3      12.405110321014172      2.3343355890956237      22.644358122242874
   168   2      8.7355315138930667      2.6684938042130919      24.727679451113143
   169   2     0.74508069494095541       9.771618272776859      24.676270114867208
   170   2      6.7608058927416792      5.2450586281351788      24.492550668166757
   171   3      7.4493180289537673      3.7524439860439829      24.392837066392119
   172   3     0.33437606157251337      6.0382511257673297      24.842063351460517
   173   3       2.888634345688966      1.3252683276470834      24.608239612791905
   174   3      14.041350116690889      1.1769755326717113      24.340932314139167
   175   3      8.4333576157210395      1.1323216163598959      24.445328832374852
   176   3      18.087966672002295      4.4777413901082763       24.79068665658297
   177   2       10.07018613088414      8.6414329750776648      24.985325996872177
   178   3      9.6978216033445914      5.7444919634447276       24.84945159073073
   179   3      5.4011559038854253      11.854724117641656      13.637874829384744
   180   2      6.4528197775366367      13.003517659208711       13.21315065734445
   181   3      7.9469794440901573       12.23829752748782      13.299299030850992
   182   3      1.3669423747156559       17.09814081026741      13.001052826752137
   183   3      3.9917767103114521      19.097434103130698      12.420097493544056
   184   3      0.3039061651694942      14.702128840060098      12.845557766312062
   185   3      9.0570359092215114      14.857937512115553      12.935859404568285
   186   3      6.6119706434804826      14.401901905521539      13.975367611822019
   187   2      8.2209100824343828      15.116173889159423      14.364124936963954
   188   2       10.20468890418924      18.037502364219023      12.068738957535047
   189   3      3.4441871848521681      16.815056892956758      14.065644891789663
   190   2      1.8595365272398012      17.362131065200987      14.594714263157314
   191   2     0.46471071839538808      19.914844214005385      14.005868973451562
   192   3      6.8904024614344124       19.85088143331247      13.890077862011395
   193   3      14.746258537257457      19.969967281711227      14.591566675738171
   194   3      2.9502988196837783      11.409134052464578      14.558403251637539
   195   3      15.506352463126563      12.401624549254375      13.927754699982415
   196   2      19.547196850763566      13.708246615522564      13.950498015742038
   197   3      11.941429210420502      15.634541776924298      14.127089068231157
   198   3      15.185654329304407      17.376667494160042      13.502938758361221
   199   3       12.60358657469892      13.101025392969374      13.530490324118025
   200   3      18.631491616298685      10.342502037156736      14.340861473086528
   201   3      19.336707972377351      19.201101820759742      13.023647590964359
   202   3      18.540573775078457      12.734665307196158      13.134600178385202
   203   3      17.747621944993039      16.412457628057119      13.328168435557414
   204   3      11.936755862744208      10.482816552903371      13.651142814427752
   205   3      14.057945578797543       15.04461901616666      12.526804464961916
   206   2      14.881753895985474       16.43653712113337      12.170998341270383
   207   3      10.331809780821695      17.811423687289505      13.614962270006011
   208   2      12.539161951191717      14.643034304805749      12.955771209600673
   209   3      12.626146969547882      19.071567548796676      13.559595729880181
   210   2      12.072885876782369      11.877484817493647      14.424223377706941
   211   2      4.5238027139565817      11.004653669821781      14.746981543850314
   212   3      7.1348510312215518      16.574725259238853      14.525246237279017
   213   2      8.8131130153898667      12.288845217040079       14.73707956822631
   214   2      15.361206360705772      18.417396437960925      14.730461566715771
   215   3      1.8292617116865006      19.028843919850051      14.664615768360587
   216   2      10.766240322082876      16.690662029599494      14.709810732195361
   217   3      8.2200218334650703      10.981511965128661      15.613004540253417
   218   3      2.1192543213893922      12.487955956807681      16.877470210840531
   219   3      5.0622969481451587      11.524791266381234      16.220046212797506
   220   2      8.2648320388769108      10.885958130309927      17.238370272456095
   221   3      5.9977219409180202      17.076103322328645      16.919912580007708
   222   2      1.6512455294153305       11.68552042625798      15.541508967202052
   223   2      1.2050625320405226      16.567949835664567      17.010578987154965
   224   2      5.7161752452298922      17.069759463599397      15.316757650799818
   225   3      4.9553719123564965      18.572603879479594      15.338286641137168
   226   3      1.0607962443228156      10.196972314422501      15.799818506261339
   227   3      2.6466220051523766      17.221894181850391      16.199641704263605
   228   3      8.4271940464274095      13.716349816427211      15.364949666106131
   229   3      9.4781693239823923      15.904596764436398      15.228379980777103
   230   2      5.3641689407800355      11.456991385204709      17.798985729251179
   231   3      6.7993957949611969      10.622816880267097      17.894641192496714
   232   3      1.9349755690130157      15.102611685265243      17.180424349935528
   233   2      1.6370580452653094      13.712893691996619      17.909489226756307
   234   3      13.694100296738549      14.943177624540587      16.606124677301718
   235   3      16.903586106752844      18.990815435618412      14.802457631383415
   236   3     0.62300729036320646      16.693609941291641       15.38225309807585
   237   3      14.825282838779295      17.521118685036935      16.064007083841201
   238   3      13.196780426620879      11.529857253167604       15.59396792321753
   239   3      10.211198617180141      19.416551465994687      17.553135471331604
   240   2      18.161200501914049      18.809811476870969      15.833958183400728
   241   3      14.145802815008359       10.83564244832321      17.929090901233902
   242   3      8.8206944604213895      12.325913362161744      17.857434285546514
   243   2      11.153046047340769      18.163508078881698       17.44892325010915
   244   3      18.544529876048614      10.595298750800088      16.976312593935496
   245   3      10.490170021501077      12.140241011450703      14.849779108846217
   246   3      15.766927465742688      12.517450389033078      16.709128960049135
   247   3      11.383159873223343      17.521210354428739      15.956723252880419
   248   2      13.059342053517604      14.148281736906529      17.968198521620138
   249   3      18.079642818794245      17.207722187776731      15.891099708067339
   250   2      15.913622076694018      11.824144948912101      15.253386590857275
   251   2      17.789005419709916      15.953249686568496      14.894162731205693
   252   3      18.741420325821039      14.594295999966359      15.032877988719161
   253   2      15.117841128585347      15.916130357058469      16.534264027195324
   254   3      17.683144173898913      19.615662385917904      17.224455119990598
   255   3      16.271135702320443      15.401949067162985      15.428197257579189
   256   3      12.627395198276501      18.624029004326072      17.929779440708256
   257   3      19.658282493432356      16.190663483395845      17.522478492922275
   258   2      13.348973180631374      10.187713910503271      16.630759384594217
   259   3      19.566749793176385      19.498226017967653      15.489944812333388
   260   3      16.373893932321401      10.260575884635729      15.506108228818157
   261   3      9.5456176355979832      14.760884391385725      18.560901734638357
   262   3      1.5217101966167379      17.712107611301601      18.250192170072438
   263   3      11.976493204095469      12.880773082419967      18.107019231940697
   264   3      0.1772777057047337       13.44059364883373      18.397025022193702
   265   2      19.244026367018698      10.129820883608243       18.46517448950862
   266   2      8.9405796037319867      13.322035383287716      19.096113353352564
   267   3      14.310344735766467      13.399056749322114      18.727069654333718
   268   2      18.886805403973774      15.952610708869512      18.912252115582572
   269   3       4.158073387663153      16.123494745336941      18.752590422708018
   270   3      4.3081030288448279      10.691448368662606      18.768530182606291
   271   2      5.7072653415503218      16.642239480425893      18.453087249507504
   272   3      6.6955190207071889      15.381391962046136      18.903027770531196
   273   3      17.643252010915266      17.057573712591918       19.01429075176442
   274   3      5.5877766262709629      12.940486243886237      18.417679139710028
   275   2      15.128359984442934      12.122106780509245      18.173948356168957
   276   3      10.416439997865696      17.175930291556334      18.551203086881493
   277   3      12.270362440700264      15.229047205586133      18.881270272327576
   278   3      15.576419571849069      15.844164423104496      18.119360884383362
   279   3      4.4024569964998523      16.063074124088569      14.953396263976224
   280   3      0.5409811265438258      12.740433055581395      14.889837249752153
   281   3       8.976180380187575      19.044520108217206      22.319235432897351
   282   2      4.9490918399440673      18.343518332349515      20.530898317598059
   283   3      2.5676631308179405      15.952304322181767      20.741368907563423
   284   2      1.1778111069715911      16.786811621990982      20.955564916759766
   285   3      1.2859921193511068      18.424567013209959      20.641360779842266
   286   3      4.8791403009607563      14.422080371837787      20.573827793881435
   287   3      7.6095736433733707      13.322557511512834      19.985924224160712
   288   2      3.5161921287159048      15.009005575817813      19.832334325168759
   289   3      3.6342077142967044      18.771770247520678      19.682747127114347
   290   3       4.981551354870323      17.156290739548901      21.703399957181436
   291   2      2.0254582409106261      18.883274682316369      19.216216681896199
   292   3      6.0495758742108618      17.945824865686699      19.422348832396978
   293   3      5.2576679705801785      19.631033854984629      21.466187087399746
   294   3      6.8213609712394438      15.373077254929193      22.372359056356508
   295   3     0.76172713181496821      16.115145872688267      22.435025185065555
   296   3       19.92153679922513      16.310499581314268      20.048158908232793
   297   3      2.7181172514254133      13.714644961023357      19.231646707576633
   298   2      6.1493027660432027      13.980153298941964       19.51695721684451
   299   3      18.187046049062889      15.181033893035877      22.322406679772982
   300   3      11.481439519511552      18.973406808449703      22.727105066397176
   301   3      19.819073763056714      11.366761592983895      19.392272020355627
   302   3      15.040413658551719      17.960043802974873      19.220607770421331
   303   3      16.300666751698358      11.822031608127894      19.251760653928244
   304   2      16.583118303251716      15.058563955629953      22.117604783699338
   305   3      18.297599114757663      14.389518199298088      19.286963545159093
   306   3      10.530222177406714      15.752586262619035      20.801832305355379
   307   3     0.22823884461148125      13.750783575975571        21.0761194943709
   308   3      11.921521689452884      14.471422920207779      22.590109109034703
   309   3      18.245284524065255       12.29089184281241      20.987156027616351
   310   2      12.326748665958362      12.856478171752537      22.431895074807546
   311   2      12.967490144513471      18.633382261575292      22.127237114258435
   312   3      12.822675856408718      18.390082717326859      20.517360280499847
   313   2      13.657414048168555      18.806993316655422      19.202296560006452
   314   3      16.040097121212938      13.672644151436572       21.42842768224013
   315   2      19.744716600140045      14.728830718089929      22.276431858696885
   316   3      11.381810739832339      10.517592200842758       19.29880244671487
   317   2      16.072316919147937      16.740470706765873      19.414269798591576
   318   2      10.481459993202344      15.295813224035587      22.338351773123946
   319   3      10.090355406545404      12.671102044049984      20.062903563274965
   320   2      10.678542354496624      15.715702982360416      19.206841592994216
   321   3      12.379423196260259      12.540244196665666      20.819249297951501
   322   2      16.644165756794674      12.292849381645299      20.799728566202862
   323   2      11.514522508593988      12.103141397428161      19.504831678100636
   324   3      16.067328621514342      16.146498931151754      20.981489100822976
   325   2      19.390259128286598      12.996651657173421      19.830259963305402
   326   3       15.97835231248656      11.149616375883248      21.723400458243695
   327   2      7.7132046127436835      14.472816036866298       23.36062711207515
   328   3      4.9168300721953777      15.833966573969686      24.058521736894932
   329   3     0.05657719220652286      13.885018900572847      23.643838817518017
   330   2      5.8739797851172684      16.568669054084936      22.942111555064958
   331   3      18.304093297801035      19.333138411537476        23.0689802154216
   332   3      6.6649848379017396      17.717642732486134       23.84585174153958
   333   3      11.187690597695211      12.275653635819319      23.526438824046537
   334   3     0.57095241060623358      11.177658373632282       23.78656998351045
   335   3      13.625106243123126      17.378530364970139      22.932081347107619
   336   3      7.0759365676034802       12.99456129331594      23.759458135799875
   337   3      9.2753445496083362      14.375460172197165      22.770739995901245
   338   3      16.023239777123834      15.160089539544341       23.74288940082058
   339   3      10.245132418523522      16.763130384228162      23.001504220397671
   340   3       13.79392954179613      12.117509678994578      22.922392331106206
   341   3       15.40070569456873      10.640211499755827      24.245498796195392
   342   2      10.123556855640173      18.313164056414276      23.244087964510129
   343   2      14.759520099405245      10.841543276479374        22.7326674635237
   344   2      6.1744644257055636      18.870827910984744      24.982763130908268
   345   3      2.3086748995597635      12.855735067856529       24.66832074444887
   346   3      7.3408152534800353      15.190188630694719      24.837271784054156
   347   3      8.9551350501064029      11.827275861315432      24.970603382966701
   348   2     0.67585282243369338       12.63550818347886      24.429255053998482
   349   3      10.046542342442219      18.374163127701692      24.890871314426079
   350   2      17.946046410613242      18.522278741718345      24.432632764473013
   351   3       16.57391748867941       17.63131849040122      24.464497465982177
   352   3      19.285995046890136      17.508599380978769        24.7048200858925
   353   3      10.879809490763364      10.075530276499947      24.883920525044235
   354   2      10.587016802898635      11.724694340372526      24.952961261860409
   355   3      0.9708183723269217      4.0539034731884831     0.37856844373688681
   356   3       3.758011785006099      1.2413894888543062      1.3358899711655838
   357   3      3.6270355003376231      1.5624595331580193      4.0012770016202888
   358   2        2.70505691910311      1.5953640946468117      2.6168293957241442
   359   3      2.2324512414078832      3.0797849458150055      2.3267660547438953