# Converted from POSCAR to lammps format

3 atoms
5 atom types

0.000000  15.000000000000   xlo xhi
0.000000  15.000000000000   ylo yhi
0.000000  15.000000000000   zlo zhi

0.000000000000  0.000000000000  0.000000000000   xy xz yz

Atoms

   1  3     7.500000000000 7.500000000000 7.500000000000
   2  4     7.500000000000 7.500000000000 8.642959691908
   3  5     6.221969316296 7.430996068696 7.154903386169
