ITEM: TIME
0
ITEM: TIMESTEP
0
ITEM: NUMBER OF ATOMS
3
ITEM: BOX BOUNDS xy xz yz ff ff ff
0.0000000000000000e+00 1.5000000000000000e+01 0.0000000000000000e+00
0.0000000000000000e+00 1.5000000000000000e+01 0.0000000000000000e+00
0.0000000000000000e+00 1.5000000000000000e+01 0.0000000000000000e+00
ITEM: ATOMS id element xu yu zu vx vy vz fx fy fz
1 C 7.500000000000000 7.500000000000000 7.500000000000000 0.000 0.000 0.000 -0.997 -0.054 0.095
2 H 7.500000000000000 7.500000000000000 8.642959691908001 0.000 0.000 0.000 -0.338 -0.018 -0.757
3 F 6.221969316296000 7.430996068696000 7.154903386169000 0.000 0.000 0.000 1.334 0.072 0.662
ITEM: TIME
0.001
ITEM: TIMESTEP
1
ITEM: NUMBER OF ATOMS
3
ITEM: BOX BOUNDS xy xz yz ff ff ff
0.0000000000000000e+00 1.5000000000000000e+01 0.0000000000000000e+00
0.0000000000000000e+00 1.5000000000000000e+01 0.0000000000000000e+00
0.0000000000000000e+00 1.5000000000000000e+01 0.0000000000000000e+00
ITEM: ATOMS id element xu yu zu vx vy vz fx fy fz
1 C 7.489758675814339 7.499447046919832 7.500975511130567 0.000 0.000 0.000 -0.150 -0.008 0.181
2 H 7.496531274278557 7.499812715349945 8.635180037798053 0.000 0.000 0.000 -0.347 -0.019 -0.626
3 F 6.235679365590683 7.431736306387948 7.161707529148382 0.000 0.000 0.000 0.497 0.027 0.445
ITEM: TIME
0.002
ITEM: TIMESTEP
2
ITEM: NUMBER OF ATOMS
3
ITEM: BOX BOUNDS xy xz yz ff ff ff
0.0000000000000000e+00 1.5000000000000000e+01 0.0000000000000000e+00
0.0000000000000000e+00 1.5000000000000000e+01 0.0000000000000000e+00
0.0000000000000000e+00 1.5000000000000000e+01 0.0000000000000000e+00
ITEM: ATOMS id element xu yu zu vx vy vz fx fy fz
1 C 7.486562540219331 7.499274488732738 7.504838988591304 0.000 0.000 0.000 0.403 0.022 0.113
2 H 7.489127824334845 7.499412978901132 8.621825388147249 0.000 0.000 0.000 -0.315 -0.017 -0.372
3 F 6.246278951129405 7.432308601023854 7.171198700702679 0.000 0.000 0.000 -0.088 -0.005 0.259
ITEM: TIME
0.003
ITEM: TIMESTEP
3
ITEM: NUMBER OF ATOMS
3
ITEM: BOX BOUNDS xy xz yz ff ff ff
0.0000000000000000e+00 1.5000000000000000e+01 0.0000000000000000e+00
0.0000000000000000e+00 1.5000000000000000e+01 0.0000000000000000e+00
0.0000000000000000e+00 1.5000000000000000e+01 0.0000000000000000e+00
ITEM: ATOMS id element xu yu zu vx vy vz fx fy fz
1 C 7.497970699392333 7.499890453480398 7.508771883864429 0.000 0.000 0.000 -0.183 -0.010 -0.216
2 H 7.478653761002537 7.498847450652512 8.608737997940183 0.000 0.000 0.000 -0.193 -0.010 -0.053
3 F 6.245344854408851 7.432258164414832 7.180353194656725 0.000 0.000 0.000 0.376 0.020 0.269
ITEM: TIME
0.004
ITEM: TIMESTEP
4
ITEM: NUMBER OF ATOMS
3
ITEM: BOX BOUNDS xy xz yz ff ff ff
0.0000000000000000e+00 1.5000000000000000e+01 0.0000000000000000e+00
0.0000000000000000e+00 1.5000000000000000e+01 0.0000000000000000e+00
0.0000000000000000e+00 1.5000000000000000e+01 0.0000000000000000e+00
ITEM: ATOMS id element xu yu zu vx vy vz fx fy fz
1 C 7.499341399580160 7.499964469895537 7.506100501170052 0.000 0.000 0.000 0.065 0.004 -0.120
2 H 7.469984463406979 7.498379369070231 8.601775675466856 0.000 0.000 0.000 -0.093 -0.005 0.032
3 F 6.252643450199371 7.432652229456206 7.189986899995494 0.000 0.000 0.000 0.028 0.001 0.088
ITEM: TIME
0.005
ITEM: TIMESTEP
5
ITEM: NUMBER OF ATOMS
3
ITEM: BOX BOUNDS xy xz yz ff ff ff
0.0000000000000000e+00 1.5000000000000000e+01 0.0000000000000000e+00
0.0000000000000000e+00 1.5000000000000000e+01 0.0000000000000000e+00
0.0000000000000000e+00 1.5000000000000000e+01 0.0000000000000000e+00
ITEM: ATOMS id element xu yu zu vx vy vz fx fy fz
1 C 7.502141072079965 7.500115665565514 7.500965049733171 0.000 0.000 0.000 0.034 0.002 0.062
2 H 7.465997663562083 7.498164100414177 8.603138349233928 0.000 0.000 0.000 -0.023 -0.001 -0.083
3 F 6.253830580099462 7.432716302162829 7.193759677665302 0.000 0.000 0.000 -0.010 -0.001 0.021
ITEM: TIME
0.006
ITEM: TIMESTEP
6
ITEM: NUMBER OF ATOMS
3
ITEM: BOX BOUNDS xy xz yz ff ff ff
0.0000000000000000e+00 1.5000000000000000e+01 0.0000000000000000e+00
0.0000000000000000e+00 1.5000000000000000e+01 0.0000000000000000e+00
0.0000000000000000e+00 1.5000000000000000e+01 0.0000000000000000e+00
ITEM: ATOMS id element xu yu zu vx vy vz fx fy fz
1 C 7.503795241896607 7.500204975045803 7.501133053830344 0.000 0.000 0.000 -0.043 -0.002 0.030
2 H 7.464278021087538 7.498071255712208 8.601385145037762 0.000 0.000 0.000 0.001 0.000 -0.040
3 F 6.253896053472779 7.432719837162280 7.195344877764295 0.000 0.000 0.000 0.042 0.002 0.011
ITEM: TIME
0.007
ITEM: TIMESTEP
7
ITEM: NUMBER OF ATOMS
3
ITEM: BOX BOUNDS xy xz yz ff ff ff
0.0000000000000000e+00 1.5000000000000000e+01 0.0000000000000000e+00
0.0000000000000000e+00 1.5000000000000000e+01 0.0000000000000000e+00
0.0000000000000000e+00 1.5000000000000000e+01 0.0000000000000000e+00
ITEM: ATOMS id element xu yu zu vx vy vz fx fy fz
1 C 7.503386127282146 7.500182886248371 7.501565929612896 0.000 0.000 0.000 -0.005 -0.000 0.018
2 H 7.464092689264247 7.498061250502692 8.600619493136591 0.000 0.000 0.000 0.000 0.000 -0.019
3 F 6.254490498331017 7.432751931169618 7.195677653882914 0.000 0.000 0.000 0.005 0.000 0.001
ITEM: TIME
0.008
ITEM: TIMESTEP
8
ITEM: NUMBER OF ATOMS
3
ITEM: BOX BOUNDS xy xz yz ff ff ff
0.0000000000000000e+00 1.5000000000000000e+01 0.0000000000000000e+00
0.0000000000000000e+00 1.5000000000000000e+01 0.0000000000000000e+00
0.0000000000000000e+00 1.5000000000000000e+01 0.0000000000000000e+00
ITEM: ATOMS id element xu yu zu vx vy vz fx fy fz
1 C 7.503278711784476 7.500177075951759 7.501957430279512 0.000 0.000 0.000 0.000 0.000 0.002
2 H 7.464100377433430 7.498061668096129 8.600197032788863 0.000 0.000 0.000 -0.001 -0.000 -0.004
3 F 6.254590224341007 7.432757323831590 7.195708613564026 0.000 0.000 0.000 0.001 0.000 0.002
