CHF_shoot_180_after_removing.coo (written by ASE) 

2366 	 atoms 
5  atom types
0.0                      30  xlo xhi
0.0                      30  ylo yhi
0.0                     100  zlo zhi


Atoms 

     1   1     0.48040350598575299      2.8873054048549407      3.7517708517824975
     2   2      2.0321485903931698      2.9396566915170284      4.2727143260685994
     3   1      3.4153998172669779      2.6929391851907347       3.450117558177749
     4   2      3.2457691558223316      2.0147491724791853      1.9605249210822264
     5   2      4.1329581261790604      4.0969734358027523       2.982844080028995
     6   1      3.5632091540209192      0.8361798363895887     0.87867171303297686
     7   2     0.40482546908042466      3.7857025342088941      2.3665812460895976
     8   2      4.3124708470404416      1.7005685926810772      4.4476455916909261
     9   2      8.5667736386402957      2.9483462549160047      3.3310202029107185
    10   1       8.240988555025945       4.519829930328382      3.2702370946061201
    11   2      6.8175510741345828      4.6809738151898399      2.4852067341233499
    12   2      6.9643776636979009     0.32544866509366527      1.5006750239611395
    13   1      5.4467465622869335      4.9436443332687547      3.3897097710758461
    14   1      7.3842880759191702     0.98493002244696592    0.049160111702892806
    15   2      14.581081155829857     0.42332071098921975     0.82121820620346797
    16   2       13.57299742596445      3.9512372348204945     0.14200249394592807
    17   1     0.16445012694285627      7.3828006990216597       2.486165035882844
    18   2     0.59496252604207145       7.468913700232882      4.0066647347412161
    19   2      1.4388837744258534       6.598163172679973      1.6892465326584185
    20   2      3.9482657663661418      7.1119522823162873     0.76638912285439342
    21   1       2.355601210890879       6.949519730675628     0.32955206803134324
    22   1     0.25817798631948613      9.0366376533614741     0.24224907137433391
    23   2     0.07387248813582753      8.9584373347395001       1.908846231012119
    24   2       5.005422102534232      8.9661709017812754      2.5664557838245656
    25   1      8.2339751876662906      7.8064074457080839     0.39760436312022246
    26   1       5.211439770115871      7.5106970089112934      1.7814105788320094
    27   2      5.0809952474123214      6.4643315372191417      2.9739045335327954
    28   2      6.7003705719802138      7.5773242525790181      1.0615611533675979
    29   2      9.3254454584329558      6.7861673391590287     0.97393958303940609
    30   2      9.6241984972922232       5.289969040839507      2.8509586184840372
    31   2      9.0445336228965907      9.3407680552631689     0.39586977176905674
    32   2      9.9615152071216606      7.9189643105182155      3.2765226014326285
    33   1      10.285103322913063      6.6587058101262482      2.3173867531406467
    34   2      11.679868774390274      8.7846925462366752     0.77550942411969914
    35   1      12.799240047973232       7.695057159524187      1.3002868581132587
    36   2      11.880504202441882       6.622779366410148      2.2030619951329284
    37   2       14.21881169925039      8.2451940978977536      1.9955753967278396
    38   1      10.105131158700978      9.0743452227075387      4.4110018849374546
    39   1       14.68676487062312      9.4146936270626416      3.0631809950654492
    40   2      13.249247251957254      6.7460940727568923    0.022552926793464323
    41   1      12.787197343162568       8.756510596479659      5.5915450936725568
    42   2      13.786969067030975      14.177769777479071      5.0012381500158369
    43   2      6.1698098341938143      10.204228516423239      4.7846803682009948
    44   2      9.0809653370477417     0.69149390884599204      4.6187771129667281
    45   1      8.9654549986319747      2.3117088845011691      4.7588902347771187
    46   2      5.6286768880406584      4.3901042165278437      4.9211859003303333
    47   1      2.1191202783121614      10.496880646235843      5.0390438062677889
    48   2      4.4977281560790496      13.632547732132906      4.8079570998362016
    49   2      13.844581663024169      14.718440900129185      2.4438878805347488
    50   2      14.055385484943709      10.793261709625789      2.3384456633996646
    51   1      14.785884522769468      11.208622507808126     0.84228182387871453
    52   2      14.546951519180714      12.782918510138146     0.76560677591504978
    53   1      10.764001609680408      12.456281877135073     0.44866920302642327
    54   1       4.825433711038432     0.23878392065275736      4.8802872463214353
    55   2      11.926131401039029      13.309719320296004      1.2709151048594738
    56   1      13.434541951136614        13.8411559380515      1.1443292739097319
    57   2      9.8848781773019603      12.072885183001597      1.7740131302814468
    58   1      9.9781850288261307      14.441084206158271      4.0660579278463755
    59   2       9.857985029817673      12.865502527047022      4.3663580246366553
    60   2      9.2891873973575425      10.341656828674271       3.870904907957772
    61   2      7.6271400874419291       12.18904051379975      3.1357675478132161
    62   2     0.99131901779670017      10.949234702707626      4.0096445097926212
    63   1       9.184200993118214      11.842537780712149       3.266457848175734
    64   2       5.932387841927337      13.967521673934879      2.4578310597250206
    65   2      1.4352605280648492      13.345703558274963      3.1743729789562303
    66   1       6.455133151258039      12.479140757276447      1.9718930109733273
    67   2      6.8474192169716517      12.382457419854456     0.42900996855927298
    68   2      5.2236804200757847      11.469058844401964      2.4725031361636418
    69   2      7.9346752178849851      5.1620024278798411      4.7310868057138116
    70   1      5.0208843704083925       10.28316236490034      3.5373338807908836
    71   1      1.8789931157317432      14.511175563740837      1.9836712192317818
    72   1     0.30480236858044013      12.182055783222669      3.2174590778222418
    73   2      13.988070941408445      8.8765288825262196      4.4567695199221822
    74   2      1.8050558737253408      14.131208421797592       0.387383404569145
    75   2      3.5540503403246406      10.269209444261209      4.2832462063977301
    76   2      11.597217452745058      9.6237268631238351      4.8186577122798173
    77   1      4.7672498064932691      14.554729736569582      3.4155692215879321
    78   2      11.530883780558581      14.791793886984699      3.8746616129257729
    79   1     0.78385271414517299      7.6740843570052402      5.5713827609985369
    80   2      10.277346765812142      3.0438442017769338      5.3620483667186702
    81   2      9.1658924701105207      14.848251207070021       2.744340679899075
    82   2       3.415063795479012      14.797763566638491      2.6259355959366002
    83   1    0.051861955412789824      6.2096813731230309      9.9136015381465672
    84   2      1.1790894021560616      14.691647527425012      9.7522784337763735
    85   2      5.4392124802817641     0.39920792849179038       6.352833090877211
    86   2       14.65250880798629      7.1710716795268068       8.138697616846521
    87   1       8.913473052433261      12.394034812775722      7.7140425979272562
    88   2      12.055192129614854      7.3477405328584382       5.990226675454525
    89   2      2.5768933198657389     0.77949308831399289      10.090100109027306
    90   2      7.2169267776802348      2.7144384191375912       8.960424713150573
    91   2      6.9546648613842006    0.042120741964977164      8.5492255134052098
    92   2      12.331544303227522      3.9876747136568067      6.7785586107940761
    93   1      12.304650891580655      14.710514335900701      10.356122827666509
    94   1      13.489594969908955      10.689738222534118      10.231295923885616
    95   1      6.6504500287185282      10.826747990872567      6.2242257746050909
    96   2      3.8472910939513887      14.801115206336778      9.7620685841730257
    97   2     0.17190517653805282      12.348590358303122      7.2190823038771903
    98   1      4.0195492162202324      5.1370594458032945      9.7223774999633967
    99   1      11.937836391351389       12.37629371319891      8.3360288348581815
   100   2      12.915389952764022      12.906703472219462      7.1600702775234577
   101   1      10.436664546939181      7.1325035427512535      6.4950603482463025
   102   2      2.4438947620167157      12.576021828029413      8.8103859923851484
   103   2      4.7769613966235864      14.275154911946011      7.4125269546871762
   104   1      7.0132842144022289      12.139234775593392      10.150727288284063
   105   1      5.2376457307426882      14.572916874209307       8.957866865464311
   106   2      8.1337278490808806      11.593842388602399      6.4813345592805218
   107   1      5.4788154213154767      13.614097898212817      6.0960250420803241
   108   1      2.5450946165382522      13.820438924385082      9.9131985527089093
   109   2      10.243353144707177       5.558122650426494      6.1731946734024268
   110   2       12.24596192058358      2.9180453175285161      9.2464368625496594
   111   1      10.636454522706696      2.7784081633320508      9.1808856148429836
   112   2       10.37791835481765       1.131199497339459      9.0340091806036682
   113   2      5.9840902422405593       13.28322290179433       9.618213535569172
   114   2      6.4384812249250549      10.646706687824018      9.8862000737757914
   115   2      8.1558585838773432      5.2078921073280462      9.4928913963248274
   116   2      4.8828930775297374        1.68842493237562      9.2179237185792644
   117   2      5.4518684110136935       4.570952597228394      9.2923722949756584
   118   1      6.9821092822055286      4.2871210797172825      8.7676142996406359
   119   2        5.81358037235188      8.1106281742894328      9.2831068473315064
   120   1      6.5284432883184866      1.3472641456772321      9.4889598752914903
   121   2       1.663374506796556      6.4685193350786987      6.2503816382198707
   122   1      11.137744008678506      7.1554676258256249       9.338019159686608
   123   2      11.628429640685766      5.6599054117542922      9.4459607059436461
   124   2      14.449609912036943      9.4702348245722234      9.6294672598591191
   125   1      1.2562034307054686      1.3844908692314519      9.0190467750480696
   126   2     0.84031826386717112      2.9214980522620024      9.1568266508844527
   127   2      12.348975405562477      8.2240694756867772      9.0790198554860666
   128   2      10.162511254247331      7.4182738457848032      8.0252620658173353
   129   1      13.777385172034821      8.5270831177952537      8.4041176976886405
   130   2      13.486913426241141      9.3353288766778864      6.9953196005319755
   131   2      12.676893680597981      11.037061114443709         8.8763979456761
   132   1      5.7029070720205084      9.6822079005771151      8.8334272424439657
   133   2      6.4771166866863084      9.7595525999564021      7.3962151510844762
   134   1      2.2340441236668775       6.712329968491642      7.7813646974239479
   135   2      2.4108304858515344      1.2614762311365784      7.8163647802209146
   136   2       3.055513146210596      8.1031879256001282      7.8307999496555398
   137   1      2.7024151159241914      9.3856598606268982      8.7531137636115268
   138   2     0.92911986978453509      6.9439954044205043      8.7506154785629437
   139   2      3.1160651374747275      5.4548221436461173      8.3655661267162742
   140   2      14.306503640484101      4.5011206378422441      8.6260587099220523
   141   2      14.033701372838362      2.1857006742675869      7.4587801665412661
   142   1      13.199684628466882      3.4283146646725338      8.0530709400405556
   143   2      2.4393184599562621      11.560188794014607      6.2588555452315173
   144   1       3.682831254808697     0.74201689885182553      8.7216859129892086
   145   2      5.7031897269306659       12.09133191972248      6.5527181010615969
   146   2      6.9663711029927029      4.8009332817968895       7.238656694553713
   147   1      1.6376424050652383      11.741802764000022      7.6686155155746167
   148   2      8.3990325570285354      12.180250426594466      9.2721205339629869
   149   2      9.9420697576320585      3.5275758662575827       7.897000558573521
   150   1      10.705117187664635      4.0488535670492674      6.5630240535552096
   151   2      11.940097656575123      13.273413504951218      9.7248495070807657
   152   1      14.166752489043615      13.508961857571684       6.411352615883632
   153   2      8.9545904244836354      13.955695420497573      7.4014470159634973
   154   2      1.4142544401428518        10.2664758285555      8.2716012729213517
   155   2      4.1283024150952974      10.210543973314147      8.7866718177102605
   156   2      10.499159046455338      11.877024028244383      7.7806167471563628
   157   2      2.3287965065311544       8.904726484457699      10.261603053093562
   158   2      6.9530251656306561       14.34387462158217      5.8083044063047726
   159   2      14.915503133524991      14.621999101587942      7.3329240298727605
   160   2    0.091592988171442721     0.30719033850353905      9.3375220135836301
   161   2      12.838944790919223    0.033627437525539212      8.8689815550135052
   162   2      9.5721076423829565      8.3016058013858043      5.7452371445053094
   163   2      7.6670065237167018      2.7053206594809924      5.7190348780942593
   164   1       7.040881449348789      4.2299188420150164      5.7352840288937363
   165   2       1.574139744345139      9.0940871346841146      5.7139158218704535
   166   2      12.859805265029678      6.5882169410142506      15.075248626736954
   167   2     0.41549191294535348      1.6036948042714476      14.410395929808395
   168   2      5.8126051803803378      11.029924637618029      13.694763874225663
   169   2       3.017556895079502      2.2783834757314936      13.544358195787057
   170   2      11.497507666698844      9.8837529597526803       13.72487135383513
   171   1      6.7571085659248569       3.989728996732953      13.006523783705997
   172   1      1.4477879289187545       1.848242701812129      13.116289654688634
   173   1      7.5079951908024158      8.3702071150865276      12.828149652629559
   174   2      1.6596082181444971     0.33111492083147875      12.521483685130855
   175   2      2.6934070325634165       13.31002643347006        11.4514915833375
   176   2       1.052910682131311      2.9531304798301372      11.986214504472629
   177   2      7.4981391777262258       3.938849408144284      11.553794552970459
   178   1       13.58492703866418      3.7722427365652416      13.696686611905065
   179   2       6.564805465467427       8.425268437733445      14.154984965400802
   180   1      3.6826646349645769      3.7829204084437955      13.712344625625509
   181   2      9.6275695965972332      5.5213945792600763      11.879793345466654
   182   2      2.8217990196483562       10.71749210176405      12.049645042366294
   183   2       10.17754637450042      13.591610338234561      14.983298324118563
   184   1      3.1131346395308324      9.1816971703513364      11.672747628554928
   185   1      2.5544531388245817      8.5849123601542452      14.325637294507363
   186   2      7.2689606364595436      12.365723750143736      11.765484047180307
   187   2      11.515932323112146      7.1514390121588436      12.872371640960287
   188   2      2.6391191236825238      4.8695317925302071      13.037878806566736
   189   1      7.2858857265947572       11.34569991808146      13.002895558363742
   190   2      7.6717315766674528      5.0163066119758613      13.911800469687691
   191   1      12.458011160175886      11.008906319526558      13.001838879027982
   192   2       14.86360691756178      6.2556549670134611      10.564406807968334
   193   1      2.4303088472166192      12.179478421058928      12.614593191983452
   194   2      2.4934135089418858      8.1023973447345501       12.73987810742373
   195   1      9.0471692926350382      4.7160261727383022      14.806903892036512
   196   1      11.838203844410391      13.559505273416679      14.664510998108222
   197   1      6.9392141027503662      1.1506830313408103      14.437353435900723
   198   2      4.0646201710223462      9.1260625744514599      14.616658632678664
   199   2      1.3353282462739795      9.6842775264250207      14.466248048409955
   200   2      10.329596235274813       5.706098282578278      14.827456472887816
   201   2      9.6490170163006574       3.270447558015193      14.264080999948126
   202   1      11.744470116706109       6.008965925248158      14.087774939264136
   203   2      10.887395172649722     0.80906942490715772      14.593129710874523
   204   1      5.5822649819347516      9.6289506537625975      14.614244591283729
   205   2      6.6974672648926656      7.4677694493291975      11.731621935436596
   206   2      8.3146620495374215      11.877607194611807      14.145631415062422
   207   2      13.471124471005716      2.3564424763776914      12.798461508382914
   208   2      13.230525539126784      14.777285645705344      11.706536916882328
   209   2      12.232556198417456      4.5847101449867766      13.375875212339434
   210   2      8.9628693449731482      7.7483375025044046      12.998161441953634
   211   2     0.75675210615026156      12.139224268668157      12.679344963102302
   212   2      12.422386251941338      10.619489260312951      11.450086340856146
   213   2      12.056305559039076      12.594627873377014      13.359018252112726
   214   2      13.944825507976489      10.742518893706128      13.672797173895567
   215   1      10.125005293819592       7.075363215349828      12.104457984886777
   216   2      7.7974320532534263      9.9315804638804757      12.352359089652344
   217   2      4.7058717566241342      8.9673172257988689      11.510266143335949
   218   2      5.1141996743917577      4.2853650103368217      13.024948786681351
   219   1      1.8468660473657628      4.3728776779066898      11.652334202042967
   220   2      6.8412092368236141      2.5493679731849337      13.689157697554389
   221   2      3.0948340042974243      12.382110028282568      14.078895099307488
   222   1      14.294426192462918      10.135398805916237      15.159207341548903
   223   2      9.2274122916135592    0.096041457480018022      11.846176934618635
   224   1      14.803252130723124      1.5826044165340316      12.248213858641558
   225   2      0.8871613141266167      5.5051711700626047      11.108084258075808
   226   2      14.819779926228325      8.5607709827471368       15.07802168460581
   227   2       10.23677513329824      7.7671743529105717      10.597397925049922
   228   2      4.2994099284114373      6.4644340870316448      10.721735321790025
   229   2      6.7550530210452786       1.071766907699176      11.058695853690585
   230   1      8.8539694044643493      4.5238337103405071      10.838269644478464
   231   2      9.8396400255407332      3.3266400886870473      10.476296975318887
   232   1       5.395438912637891      7.6535123703147523       10.81114933275855
   233   2      3.0575128851300106      4.1191273284110173      10.555695125088159
   234   2      14.644199128157004     0.98977377219490847      10.678383061222819
   235   2      14.469383102098337      11.890062006743861      10.830481546361357
   236   1      9.8004157376780103      1.9110230181946506      15.159891546583577
   237   2       14.92945083325494      4.5128068588162371      13.289096129378612
   238   2      5.5332946281711699      1.0877732201149635      15.259599516085165
   239   2      3.7834933704845231      4.1621747239202653      15.287336573990482
   240   2      13.524052003864051      3.4296149547986419      15.284927458706729
   241   2      2.1508199576122422      7.3667068076986615      15.300704369115342
   242   2      10.794674116546433      8.9925620910712034      18.174181998225858
   243   2      13.752482770684193      12.436842606199964      18.249036903010683
   244   2      9.9308698984758372      4.1978515237067882      18.444639041222331
   245   2      4.8343241398989329      9.0667560244001812      18.259156907766211
   246   2      9.2596757348900578      11.346566174006151      19.219263679332613
   247   2      13.580714098950084        2.70513192467839      17.768094291430515
   248   1      0.3431970348205588      4.9480710579950413      17.414205118414142
   249   1      2.2057672833867414      7.1662515866528933      16.936686923688704
   250   1      9.5418021296391977      12.688098421111738      18.313982095594024
   251   2      14.010680710495585      7.4144609867128164      17.385241471872675
   252   1      8.8151930321140597      5.2370675594083309       17.78959224438082
   253   2      3.3960343134238307       6.075278242484603      17.157636505859365
   254   1      3.2540953846887564      4.4578292633146583      16.732962073445243
   255   2      9.1450185317372181      14.109990686455767      19.100148595164903
   256   1      14.180330747201225      11.463503104672546      19.477978093662088
   257   1      8.2162781870399737     0.50025053669604191      19.249173694479069
   258   2       12.59753623632621      7.8013675499486901      19.639957845678087
   259   2      6.5515449869641573      7.5180507626383273      19.495387759839502
   260   2      4.2101250239207628      3.7493557923991574       17.86372210783238
   261   1      5.0819230098024377      10.485371700507002      17.390652088670976
   262   2      5.8057058098227854      11.437738844258707      18.533691703709163
   263   2      7.5964626285025512      5.1293862645210373       18.80853756866636
   264   2      13.767160110662889      5.4258176043695769      19.030773484106088
   265   2      11.672441974373527      6.4649763024012206      17.544888741928183
   266   2      13.010170157964636      10.333113318095739      19.300349125054172
   267   1      10.134411062189193      2.6301575235380859      18.170881071906965
   268   1      13.039960435833779      2.0663340710697717      19.162508923331174
   269   1      1.6673189047354218      9.5106273474829202      18.738749312295219
   270   2      11.392215770806761      2.1315289061493554      19.083553825657063
   271   2      10.369801805412362      2.4618845571288839      16.566081628386868
   272   1      12.594373399590648      13.247319028253225      17.526176612311268
   273   2      12.933992763182887      14.827885761590963      17.811214291540296
   274   2      8.7899914290897172      1.7039106647446189       18.31609049893548
   275   2      2.3073644438020415      8.6949382961351311      17.530485399699359
   276   2      13.667588241223363      0.5293429000697536      19.188825503444598
   277   1      10.611592183500703      7.6570662649693713      17.232322230360765
   278   1      5.3286571448038869      8.5458839625325691      19.774636877491471
   279   2      9.2349752311204902      6.8451990690568243      17.350421360069454
   280   2      11.122437544648779      12.918708004611005      18.143071041748492
   281   2      5.3898295483566896      5.2001219923286275      19.608773129373464
   282   2     0.75549974878652382       6.515619834454947       17.40525014851384
   283   1       13.00775161519088       6.721042439882801      18.467131604954336
   284   2      2.9191692457374017      13.567694386867817      19.135438497104886
   285   2      1.6200564005115352     0.37034360707752711      18.573513055757662
   286   2      2.4866197856592569      10.915809969468375      18.866184227497641
   287   1      4.7660462473282399      3.7367210765651855      19.431326899158496
   288   2      5.6790132644588223      2.3877805156690375      19.665173020336514
   289   2       8.676191042201987      12.544316616772171       16.88766163806055
   290   1      11.837722935591154      9.2826201179474275      19.441603076196525
   291   2      1.6146555227410491      4.0537602045101089      16.775169478304498
   292   1      11.371817216416071      9.8154881474615703      15.345286463968556
   293   2     0.17826347279073945      4.3601873930380499      18.892482419614076
   294   2      8.3089971336432278       1.270949576890646      15.393527506393983
   295   2     0.14805490943015498      9.7911951947451321      18.256628277717475
   296   1      9.3720450260709214      12.200963318706863      15.403977151335665
   297   2      8.4316004607472212      4.5788188624612971      16.326224507331194
   298   2      3.3810436784713236     0.44264378414232908      16.407603126798101
   299   2      6.1113977268150874      10.064493037251621      16.161544034888632
   300   2      3.8505865592973803      11.251170340400803      16.572861389151907
   301   1     0.34775572477665412      13.650801451355653      16.056336849774755
   302   2      10.703268703164518      8.3751225112968513      15.733402227762552
   303   2       12.62589920495782      12.926802061715867      15.930477746221422
   304   1      13.969669286591731      2.2057828557032155      16.272508377677802
   305   2      3.6735293465622805      13.993966615806483      16.030016158425504
   306   2      12.843485105159099      10.079015809480694      16.033853960331538
   307   2      13.196137325148634     0.84921841519451835      15.929752723650251
   308   1       14.25298209466288      7.1721881532782543      15.748474775774824
   309   2      1.5074963569286119      12.479145923842628      16.255892176914987
   310   1      3.0924504702682976      12.447205403868068      15.772317585610116
   311   2      10.377563653429137      10.976834295557406      15.752886539465946
   312   5      2.2481914791567243      6.1816492334537463      19.626233816249016
   313   1     0.59773248141672131      12.542090197646317      22.273960679055342
   314   1      2.2803394166847002      10.464217229058097      23.717827808935137
   315   1      10.071363750759222       7.813159401126061       24.29286043861439
   316   2      1.7248243607141802      5.0171913841290099      23.824445843547565
   317   2      9.8840944723542989      13.790869505027246       23.70499673850366
   318   5      10.602297366982382      1.1266781092276867      23.616909599518948
   319   1      12.031224972957036      4.9978612051271059       22.60982625820283
   320   2      11.653982869332825      7.8818891719317117      23.935893874861193
   321   2      14.909544682719742      11.076903931475922      23.970474431746975
   322   2      14.021840573593439      14.073695546329784      22.894233381412025
   323   2     0.89156762477557239      13.949313828580639      22.966165978228986
   324   1      14.064727932025246      9.8212920712179059      23.371308734636298
   325   2      2.7354546817193355      2.6791217019719253      22.923073716165828
   326   2      9.2584751905011551       6.683969699144038      23.426212894981841
   327   2      6.7701416550367366      8.9768569363501509      23.422654900422671
   328   1      8.1003800286315499      9.8775498275247795      23.199783230040893
   329   5       5.616601973643184      14.252140328648721      22.364339686753397
   330   1      7.4489849004191617      3.4006421769197739      23.244773151026976
   331   2     0.93272296018698797      11.269697818055313      23.213110993114682
   332   5      12.659872257522066       10.32894092879371      22.875757044284249
   333   2      12.410999046325802      5.5755904297405614      24.032190635860708
   334   2      7.9367492138998683      11.381568994638382      23.641043466101241
   335   2      6.2991215869785702      2.7469893845789768      22.303403673729377
   336   2      9.3798519543200047      9.2116360538074975      23.966908879628935
   337   1     0.95096412847870271      5.8631121770054708      22.664600318735367
   338   2      8.2644872910567013      2.1419691349743064      23.979903733002757
   339   2      6.6898629555918196      13.678901831282456      24.332537663992643
   340   2      6.7830223512223542      4.3371852379609495       24.42232859131429
   341   1      2.6860784502702972      3.7567831665402491      24.134466391063278
   342   1       13.02450461657339        14.6223483783298      24.186021787062703
   343   2      5.0419604953948323      11.932609629762741      24.042470960978012
   344   5      4.9679268301363821      7.2347821610913403      23.797248760483573
   345   5      3.2639230840950804      10.122903192025838      22.525361512814385
   346   2      2.1270637722254824      6.8737834109824769      22.085660794040422
   347   2      8.5422988023453374      4.3170856065154046      22.559118686515518
   348   5      11.779439325713994      3.4082184239800895      22.674312043100723
   349   5       3.583378125658657      13.340089685848664      22.931567933798071
   350   1      5.0370329400846048      13.561288584644407      23.661650620875157
   351   2      14.028354724201385      8.4598578316480744      24.240861502149585
   352   1      13.424551562673228      13.489167900367754      21.525765479709996
   353   5      6.3385009373836816      5.9261707880989754      21.596029203139157
   354   2      9.6376222104598934      14.947195503248301      21.448265759175698
   355   2      6.8586031486536463      12.340962003472287       20.83322062514533
   356   2      11.825451476559511      13.259438754808727      21.823351530242935
   357   2       10.79605296782375      9.7742601011178181      20.650945673056611
   358   1      6.8842853633652918      5.9773120409404514      20.067900440971258
   359   1      10.253083791032212      13.553530238175727      22.216883709871247