LAMMPS data file via write_data, version 2 Aug 2023, timestep = 77000, units = metal

793 atoms
5 atom types

0 14.142135 xlo xhi
0 14.142135 ylo yhi
0 60 zlo zhi
0 0 0 xy xz yz

Masses

1 28.0855
2 15.999
3 12.011
4 1.00784
5 18.998

Atoms # atomic

527 2 0.9563036589505308 0.2699669162601824 0.574921675430278 -5 -1 0
353 2 0.14709744198425118 2.6691566954801513 0.25030553372811637 -6 -1 0
435 2 2.429602509980682 1.7997119291779111 2.1750287653772493 -5 -1 0
420 1 2.531224012184387 2.7293972181399146 3.5761132370576894 -5 -1 0
450 1 3.564460167444381 1.1952722302300094 1.2286473331934047 -6 -1 0
481 2 4.956705507850386 1.9516432120326077 1.6929366392249494 -5 -2 0
400 1 5.559347994017888 2.7434040751162923 3.060256484099907 -6 -2 0
427 2 7.481791556204602 0.3258757318138111 1.8686113540656217 -6 -1 0
444 1 8.677407796616189 0.9962825046321662 0.9478958364033051 -5 -1 0
513 2 8.896521690065537 2.50352606882149 1.5566097088487132 -5 -1 0
449 2 10.064456100115624 0.2055537563976813 1.3547193105944655 -6 -1 0
509 1 7.25226411247796 0.3937891740434622 3.4806209331440727 -5 -1 0
462 1 13.867314901422045 1.3174398807221124 0.9650841374926202 -6 -1 0
573 2 13.427147040859836 1.9906245026105143 2.4666394387062716 -6 -1 0
483 2 12.45032740498117 0.3415346947486243 0.48456890526709967 -6 -1 0
447 1 12.51989637643766 3.345382518084052 2.7006067881360414 -6 -1 0
407 2 1.535990637100811 6.536166013999698 2.4115086090000313 -5 -1 0
396 1 0.6637352849536585 5.322696250371737 3.2130656956610393 -5 -1 0
501 2 1.7095888047464847 4.1126122178818445 3.3970539546591865 -5 -1 0
457 2 4.412515739857927 5.533326617631237 1.3739715706425155 -5 -1 0
419 1 4.8961259763349245 5.609266836924269 59.858803602136994 -5 -2 -1
514 1 5.652899621444835 5.714022805022931 2.525185284566232 -5 -1 0
422 2 6.310321519297406 4.190346033576631 2.7425829124684076 -5 -2 0
423 2 6.279505950042439 4.794513693860262 59.96171906302574 -5 -2 -1
484 2 6.895592750275054 6.6046148638899815 1.8201351961357677 -5 -2 0
411 1 7.542529798815806 5.65528402397637 0.5165767516200795 -6 -2 0
460 2 9.019692700313827 5.046998146573523 0.8748570885128923 -5 -1 0
520 1 9.790387988018622 3.8538420755553466 1.794632613931707 -6 -1 0
477 2 13.416780245187175 4.752050173091406 2.5168617984737263 -6 -2 0
479 2 11.426532268227813 3.4501102373864385 1.5774078334028616 -6 -2 0
458 2 0.9929692747279683 9.083709467916465 2.312841358630823 -5 -1 0
415 1 1.934752171032359 7.901539688813292 1.6213773889300385 -5 -2 0
524 2 3.4752470393447243 8.346985077092322 1.8709925136211187 -5 -1 0
510 1 4.284623862401244 9.706285823684492 2.515194011123143 -5 -1 0
498 2 5.8020625052574 9.309394432081746 2.8145040296753896 -6 -2 0
425 2 8.336539448326038 9.614932932514405 1.9073402346506292 -6 -2 0
414 1 8.617342391905169 9.709520049262018 0.2842910860725713 -5 -2 0
382 2 10.188651210874513 9.312555619562291 0.058403703820515664 -6 -1 0
487 1 7.364848182000887 9.543640232628174 3.234933830513739 -5 -2 0
463 2 12.779087994644149 10.359547553512193 2.6410329204384166 -5 -1 0
424 1 14.052702612172164 9.602023293241507 3.413623460676302 -5 -2 0
402 1 0.49435399546042613 12.847208990463926 0.5428998990936139 -5 -2 0
331 2 1.8887965914854643 12.005760390521537 0.5954681084306325 -5 -2 0
347 1 3.186753367661621 12.339163623143154 1.605506495847591 -5 -2 0
406 2 2.5225991773406604 12.494754778256384 3.1132773804406617 -6 -2 0
418 2 3.859936319286346 13.69113997784823 1.3596960706052266 -5 -2 0
408 2 4.154186393556487 11.051476516546566 1.5341072745651343 -5 -2 0
521 2 13.880002308998398 12.60275574515316 1.9646414204555058 -6 -1 0
502 1 11.185203076175593 13.42772165280311 0.7023816481363474 -6 -2 0
403 2 11.256650010099458 12.221683469776986 1.7709173723322102 -6 -2 0
409 1 12.587054304670664 11.967519743314615 2.688156565456072 -6 -2 0
564 2 1.9275962073320243 1.8102117995687839 4.839508775875249 -5 -1 0
475 2 2.5525784338339577 0.4026271536456828 7.132485525783959 -5 -1 0
515 1 3.212718618894896 1.282163439785619 5.852404758984504 -5 -1 0
428 2 3.9095971641610925 0.08486380763787965 5.018832828952186 -6 -1 0
574 2 4.1069925980072375 3.170932673798118 3.8535732598439965 -5 -1 0
576 2 4.350511255011124 2.28993179843951 6.403260603376622 -5 -1 0
329 2 6.443201629974308 1.7816126204347604 3.9708755426976907 -6 -2 0
426 2 8.743609638273462 0.34994964515579186 4.223765570618646 -6 -1 0
506 1 9.405644949518727 0.8633318174736583 5.603668827814469 -6 -1 0
476 2 9.834451238617527 2.494025444708687 5.499529232526596 -6 -1 0
416 2 8.452920255556924 0.7458985884126805 6.8489570124176 -5 -1 0
437 2 0.3537669505172932 5.974598998721358 4.682311213774735 -5 -2 0
507 2 4.943332491228309 6.293956451583835 3.8937904595160164 -5 -1 0
570 1 5.0214872600273255 6.29830684402074 5.594334608423174 -5 -1 0
598 2 5.188056753670873 4.794200781290606 6.1792075668822575 -5 -1 0
488 2 3.560780716147179 6.772160130089025 6.320059639820315 -5 -2 0
471 2 9.766024551224344 4.090742024130431 3.364915556196716 -5 -1 0
451 2 8.72916040248103 6.903965245090669 6.321189842184054 -6 -1 0
525 1 10.542772845303078 3.7257279739417712 4.764300268298301 -6 -1 0
578 1 10.156522028287842 6.1682229482561794 6.706520730826966 -6 -1 0
413 2 12.025904014795405 3.1834874123526546 4.257212093114655 -6 -2 0
582 2 10.67439502331981 5.240917828315329 5.486301654588858 -6 -1 0
467 1 0.14487251008792826 7.486152910484572 5.198655463335169 -5 -2 0
345 2 1.5989996468633927 8.177918084503862 5.327753653642519 -5 -2 0
593 1 2.7633165737913448 8.24177794502291 6.406763824262597 -5 -1 0
489 2 3.378388906778734 10.10808385051567 3.7620413267993387 -5 -2 0
417 2 4.097637480930085 9.145027299837759 6.2695959648238855 -5 -2 0
496 2 6.206794325958307 7.30594116473918 6.054570202176818 -6 -1 0
405 2 7.793765246492177 8.332821468606491 4.187610166434824 -6 -2 0
491 1 7.777648614999693 8.038473935111748 5.77916307145181 -5 -2 0
480 2 8.155459529699188 9.563416288018875 6.376155670931447 -5 -2 0
493 2 13.50035455206522 8.233070398968865 4.039817529118206 -6 -1 0
517 2 13.676792969244989 7.813368916535318 6.662782551899397 -6 -1 0
443 2 0.606789021530001 10.823735846228901 4.313695467155162 -5 -2 0
528 1 2.2476770450434826 11.199977978227466 4.2247049616261645 -5 -1 0
365 2 2.730502095301946 11.455536472041874 5.738943401729399 -5 -2 0
373 2 6.1277788365411645 13.897609350504512 6.395560371144715 -5 -2 0
559 2 5.131467750178827 11.674716359018598 5.823515186894107 -6 -2 0
430 1 5.2105942771476075 13.163711865184228 5.229836982203814 -6 -2 0
551 1 3.9657517596605762 10.772185262074666 6.554103806906594 -5 -2 0
421 2 6.257182492234629 13.263799746170175 4.000130911187301 -5 -2 0
581 2 7.672246196182171 10.94308348239161 4.127949754337979 -6 -1 0
464 1 8.559170147529997 11.02597192994091 5.617034113537544 -6 -2 0
526 2 8.087518365834132 12.173073926233075 6.6158991199223705 -6 -1 0
474 2 10.163485848805907 11.217593839525158 5.2919712332600986 -6 -2 0
401 2 10.694969812421496 13.9763905844981 5.671755072255875 -6 -2 0
344 2 12.435247267025117 12.57539379652276 4.2327404814167995 -6 -2 0
503 1 11.319713787319314 12.434506299102775 5.5331407407644315 -6 -2 0
603 2 12.41992518887721 12.040774106979535 6.647399604558775 -6 -2 0
512 2 0.2683117422328288 1.8292006156320582 7.055593490823084 -5 -1 0
454 1 0.26439415692106866 2.594148867062653 8.589178611448038 -5 -1 0
508 1 1.0010595569605492 0.40030607562377096 7.687061660015821 -5 -1 0
482 2 0.8887851844697731 1.0314337581786361 9.16208250390925 -5 -1 0
465 2 6.390740382032581 2.999060286303502 7.729737275688569 -6 -1 0
565 1 6.9891231426318265 3.0070548805734547 9.274674889356534 -6 -1 0
571 1 4.976939545991526 3.5944483791907866 7.211940204733144 -5 -1 0
548 2 5.743690209323242 3.1531317450588214 10.306630632769387 -6 -1 0
588 2 7.847870336207992 1.7246026391850198 9.94148601275385 -6 -1 0
597 2 10.228373607973316 2.6288813474905703 9.033189354059349 -5 -1 0
589 2 12.844163442740738 2.6878443451580964 9.050208548873194 -6 -1 0
472 2 11.612869280947905 0.403518722450814 9.01394452163184 -6 -1 0
545 1 11.5771586741218 1.906089050161312 9.65691584921421 -6 -1 0
635 2 0.83680017541093 4.013605660340931 8.825056205915066 -5 -1 0
586 2 3.9959846710958713 3.8000487608994864 8.445445422221916 -5 -1 0
591 1 4.2722408900352855 3.7478092704368544 10.096103800773607 -5 -1 0
629 2 4.300185728106198 5.262581331483761 10.665615008617502 -6 -1 0
533 2 8.092631074911434 4.209059091587125 9.329910580225127 -5 -1 0
678 1 9.7979357995396 4.195682562457014 9.19716666185824 -6 -1 0
590 2 9.972218324831902 5.045019672741145 7.8850589742422725 -6 -1 0
668 2 10.795369099285265 4.645890643036115 10.467971815746244 -6 -2 0
555 1 0.1812349444901771 8.715574253196163 7.863170268111595 -5 -2 0
518 2 1.8042196765654444 8.551508666584505 7.796923839041164 -6 -1 0
438 2 14.115255819521954 10.319046029416741 7.848293078862605 -6 -2 0
547 2 6.1270909001703 9.725282489736138 9.477776805386833 -5 -2 0
613 2 13.217637588814082 8.097639993124787 8.970745204814884 -6 -2 0
497 1 11.56314468947707 8.013760888821546 8.930155949965375 -6 -1 0
516 2 11.117491973267555 7.156885164604219 7.536840031213309 -6 -1 0
542 2 10.845649234307185 9.496254528638328 8.884986250351323 -6 -2 0
441 2 10.765644935403708 7.313896438023477 10.217747710576486 -6 -1 0
478 2 0.3627372541892552 13.064978764279866 7.407827246691868 -5 -2 0
440 2 3.7430877036280505 10.773860109033553 8.18590182940381 -5 -2 0
485 1 4.604509116739464 10.630550073104589 9.513591742337574 -5 -2 0
442 2 5.102064497445763 12.117310035035263 9.666641205758221 -5 -2 0
531 2 7.078316988252227 13.522380451918668 8.645624748124 -5 -2 0
494 1 6.383818087115443 13.04317305298064 9.925047549633067 -6 -2 0
492 1 7.475159480424784 13.594556651729102 7.127661586900874 -6 -2 0
511 2 10.559318490900424 12.015145600409765 9.401235469885794 -6 -2 0
540 1 10.547597043141476 10.566390952669542 10.11549943965907 -6 -2 0
546 1 13.491531006813355 11.80051540695994 7.767604479923794 -6 -2 0
656 2 13.025809217839866 12.22316075795045 9.316828974220533 -6 -1 0
549 1 11.75493062604132 13.101829469542784 9.862918984521084 -6 -2 0
607 2 2.0197925990264296 1.9091264843093494 13.170791458767194 -5 -1 0
572 2 3.1222767616054745 2.8218967240768853 10.818514135251679 -5 -1 0
523 2 14.139327029514938 0.5964673192090126 14.020386901303437 -6 0 0
626 1 3.346636073667774 2.4390916881556417 12.415479261247324 -6 -1 0
637 2 4.456807642107624 1.354020850505736 12.827231118089387 -5 -1 0
661 2 5.704219333623859 0.14002726724230574 10.823782046083375 -5 -1 0
610 1 5.818250427962618 0.587545073558359 12.36900904003995 -6 -1 0
662 2 7.024960951943183 1.6390755480720531 12.4408769455437 -6 -1 0
684 1 8.30605685914281 1.8955340776690677 11.454153129585967 -5 -1 0
500 2 9.427420141171032 0.630977831496396 11.635826442143742 -6 -1 0
505 2 8.70612777970713 3.423569126420654 11.76105166188118 -6 -1 0
539 2 11.732868128429027 1.8985595260405719 11.390265307441126 -6 -1 0
615 1 11.076661786344188 0.6518656213729555 12.201935494180198 -6 -1 0
786 2 11.097466302424502 0.5438426262252971 13.824123292398005 -6 0 0
543 2 1.6624297079985597 5.31790242899954 13.16283239356385 -5 -2 0
595 1 5.195133349033626 5.989917139715309 11.781182221031473 -5 -1 0
470 2 4.184784031070132 6.411481733959062 12.959814156647878 -6 -2 0
566 2 3.81748409603783 3.819442856140629 13.239197139116646 -6 -1 0
600 1 3.2202535737732854 5.222126083078301 13.691983388427289 -6 -2 0
563 2 6.414620921835405 5.077053253655512 12.378960882569485 -6 -1 0
554 1 7.998657631174798 4.782804422065619 12.558396098850755 -5 -1 0
535 2 8.827197126943085 6.063523475187047 11.848903827569025 -6 -2 0
611 2 14.057326864342265 3.3913185226623583 13.682319440207037 -6 -1 0
707 1 10.384923358384656 6.006932061919593 11.224045376712606 -6 -1 0
630 2 11.152003985352888 5.817901180871091 12.695929916168197 -6 -1 0
653 2 13.353600974498184 6.077458901372949 13.885260497924708 -6 -1 0
596 2 5.740688259037622 7.400671397154157 11.197040377761503 -5 -1 0
621 2 4.1390335817290165 9.812251537953763 10.893014222870782 -6 -1 0
560 1 5.7331569340565816 9.02998581746661 10.948100564996654 -6 -1 0
519 2 6.7476525233182985 9.775174337128592 11.990313522880573 -6 -1 0
468 2 9.240795908652467 10.186686558603752 11.117310422285819 -6 -2 0
544 1 11.961832818284881 6.982909239019987 13.412172636009247 -6 -2 0
646 2 13.568401175872753 9.946990987156546 13.231981638180544 -6 -1 0
490 2 12.186406721931455 8.04270199191965 12.213521990209635 -5 -2 0
584 1 12.112903532746733 9.644921748415282 12.535343200818481 -6 -1 0
469 2 11.872140443331876 10.503726633176573 11.159173773238276 -6 -2 0
706 2 10.902439676809268 10.063108858635797 13.556267299102052 -6 -1 0
599 2 6.240917590626659 13.512183558725265 13.214060709184032 -6 -2 0
557 2 7.4771611928889765 12.165444577108149 10.817186020999745 -6 -2 0
538 1 7.903023707309643 10.921642044207902 11.795958710328016 -6 -2 0
550 2 8.335554626927696 11.705378608193667 13.129207927286402 -5 -2 0
536 2 11.7965864677587 13.435783198579033 11.491598969201856 -7 -2 0
587 1 0.7651163201644392 2.0969019253044294 14.146225818047114 -5 -1 0
649 2 1.225839603356748 2.219845585875072 15.669891671781158 -5 0 0
552 2 3.6362296641084555 0.6481905956061634 16.469719655378537 -5 -1 0
579 1 6.831235560259257 2.0052954124307174 17.520053950818266 -6 -1 0
620 2 7.63602320834956 2.606879218092641 16.253255700096123 -5 -2 0
720 1 9.94182592313662 0.6952737524846936 14.981794628265316 -6 0 0
640 2 9.78528954993775 2.3294744260408398 15.092459879496886 -5 -1 0
556 2 10.212232536932397 14.034483247904706 16.36339528278187 -5 -2 0
541 1 0.3278204756664313 4.983474013275732 14.054056532446001 -5 -2 0
683 2 0.8092525602497512 4.899796184548471 15.621544115941528 -4 -2 0
602 1 0.8596744789536216 3.61342229386288 16.627229274648382 -5 -1 0
659 2 3.311500896338778 5.41498998530888 15.295897228425726 -5 -1 0
604 1 3.348594452544495 6.676879096785216 16.47389244645288 -5 -2 0
575 2 8.337445068741088 4.3012011068510345 14.124312831659731 -5 -1 0
705 1 8.750979428591862 3.459515430962978 15.494703655693336 -6 -1 0
1 2 9.30220469817 4.731570383091992 16.44985231959915 -7 -2 -1
568 2 13.58218149244184 3.7021294075489197 17.3041525125286 -6 -1 0
558 2 0.9021449154217187 9.786886245918978 15.530969138872209 -5 -2 0
592 1 1.6749473472032033 9.103694554244484 16.885983199152875 -5 -1 0
537 2 1.8308390820443903 7.364194129906867 16.72845277198567 -5 -2 0
534 2 3.188885700230162 9.498163437852147 16.975187197768772 -6 -2 0
585 2 4.5350966272015985 7.672802754556783 15.967703497749937 -5 -1 0
618 1 4.75727436422445 9.035199262805 16.689958656280105 -5 -2 0
617 2 5.496621035909556 10.098792836471823 15.756563870388568 -5 -2 0
642 2 9.933801389674489 9.566616906127788 16.11526517510148 -5 -2 0
466 2 12.420118669623355 10.320762657438461 15.46906660675491 -6 -2 0
789 2 11.465537692008004 7.787700615675649 14.784054332091142 -5 -2 0
682 1 11.17101991444922 9.433112012324681 15.081779087331169 -5 -2 0
601 1 0.5105593911926922 13.497765063759743 14.892588824026948 -5 -2 0
677 2 14.14069032111512 12.107842236203856 14.2876905955198 -6 -2 0
660 2 2.186616221425962 13.465218207901945 14.83222986316068 -4 -2 0
567 1 3.0140778283330927 13.301965730046012 16.279032278820473 -5 -2 0
632 2 2.063416756119367 12.685530142446002 17.458655782263936 -5 -2 0
562 2 4.261273575173597 12.384952697640605 15.946856136346785 -6 -2 0
569 1 5.710329256588795 11.669725342364668 16.160762448355772 -5 -2 0
633 2 6.915255188660971 12.353656043791386 15.3432982557773 -5 -1 0
553 2 8.584821038856004 14.088317746391299 14.408889278990982 -5 -2 0
594 1 7.590123467770196 12.955543742041812 13.957609454376614 -5 -1 0
583 1 13.84306410762833 10.566769520183101 14.69935635380878 -6 -1 0
623 2 14.034881627605515 13.61860005945266 16.410500017227804 -7 -2 0
690 2 1.8585975129080976 3.4849366485245308 17.91137690612957 -5 -1 0
608 2 1.7395809264131168 2.7461442277404466 20.54518837903185 -5 -1 0
658 1 2.7053370739853944 2.7366683461063412 19.235109568239153 -5 -1 0
699 2 0.10166129938639196 14.023684317497587 18.858544344704782 -4 -2 0
641 2 3.414036890780053 1.3736068745596457 18.83961847740497 -5 -1 0
657 1 4.609493743034334 1.224083918836505 17.619303797872337 -5 -1 0
643 2 5.213556809758755 2.7522278588757776 17.251593252372857 -5 -1 0
580 2 6.059922849042944 0.5366645047899093 17.883587137452473 -6 -1 0
58 2 7.877623009011523 2.28778153488111 18.893533281172598 -5 -1 -1
698 1 8.71875719062634 1.2311006508611781 19.733681559791563 -5 -1 0
650 2 10.03741179015859 1.8305587988122707 20.512336577300196 -6 -1 0
748 2 7.660262005275921 0.6792789339205453 20.799104611698198 -6 -1 0
777 2 9.183051785889772 0.15204286926889482 18.577596575770663 -6 -1 0
612 2 12.422341160565976 1.9182503229588075 18.431022190740606 -6 -2 0
56 1 12.624021827222428 0.4286432891591614 19.03322179898265 -6 -1 -1
763 2 12.447285200155692 0.5585720869017882 20.666431365058447 -6 -1 0
691 2 0.257922047832289 6.0732920750369885 20.36787171552172 -5 -1 0
636 2 3.735507072164302 5.816595003401884 17.745886628321177 -5 -2 0
499 2 3.1259506804210884 5.854796299245346 20.251599762061822 -5 -1 0
645 1 4.219249523121953 5.180177801458363 19.20265444785948 -6 -1 0
644 2 3.9913700321158276 3.6095614261318403 19.695726563742305 -6 -1 0
695 2 5.808374607046505 5.393474885717003 19.05375503198205 -5 -1 0
772 1 7.369370755961137 5.608182580274431 19.66486102037392 -6 -1 0
29 2 8.649788608476308 5.651349070919092 18.752171024007648 -6 -1 -1
711 1 9.980566012119041 5.303142618155656 17.773563414671294 -6 -1 0
685 2 7.6304631456573935 4.573293359789809 20.929287281106912 -6 -1 0
737 2 12.703658668139763 4.206113323384935 19.801362766846022 -6 -2 0
700 1 12.402240585900094 3.5328620209962693 18.409311145866692 -7 -1 0
723 2 10.824978665290882 3.963749869300995 18.18036461168248 -5 -1 0
486 2 11.005089870274618 6.589153176134988 17.62179869294038 -5 -2 0
717 1 12.840236580038004 5.728292187716305 20.522202390910813 -6 -1 0
631 2 1.1321792777026698 9.481813612147 18.359344353577402 -5 -1 0
664 2 5.517435669887198 9.00837304284073 18.11308634731563 -6 -2 0
675 2 8.048200227734663 9.646621835931139 17.7137339544474 -6 -2 0
639 1 9.564223819125774 10.038182260356423 17.641037831937503 -5 -2 0
743 2 6.981823616175994 6.9956890980406605 20.391073710041777 -5 -2 0
648 2 10.495189461355691 9.067253143136952 18.59491573364484 -6 -1 0
652 1 13.731675616933023 9.889371270496904 18.767983197158678 -6 -1 0
768 2 13.473804627240808 9.81140039650214 20.352339711016324 -6 -2 0
619 2 12.888921454322746 8.687874550426477 18.03986729012245 -5 -2 0
628 1 11.580596361816442 7.784901867059654 18.468419794718507 -6 -1 0
616 2 11.983396967018306 6.9753259023205105 19.91084745995436 -5 -2 0
605 1 0.43438131705509825 12.843666285043199 17.773209289036885 -5 -2 0
654 2 6.813350790461651 10.284643880127707 20.049335325991002 -5 -1 0
729 1 6.59336849863435 10.124657182399217 18.484432383491743 -6 -2 0
606 2 6.158034364275062 11.546159558342804 17.735455628464187 -6 -2 0
655 2 9.754932874558541 11.706126315267076 17.873086253913687 -5 -2 0
752 1 10.184030707243606 13.354533542648028 17.79609455133484 -6 -2 0
627 2 13.848427600290027 11.464897884630638 18.216025913060477 -6 -1 0
766 2 11.764474882285064 13.43594692067287 18.30365584281125 -5 -2 0
727 2 0.9155370218596797 2.2911582273146975 23.087613796992013 -6 -1 0
16 2 1.3944042499853992 0.33367664622592696 21.483001029764736 -5 -1 -1
679 1 1.91128666582337 1.84090228610443 21.912025579259332 -5 -1 0
673 1 0.6605639395945107 2.5331745148491107 24.764046535166894 -4 -1 0
791 2 3.4667785074562985 1.8617096502634236 22.55741297591657 -5 -1 0
14 1 5.052439380073254 1.6588532970804875 22.76862861580002 -5 -1 -1
784 2 5.455809650604662 0.17849333795338523 22.139319127927756 -5 -1 0
624 2 5.832130016392794 2.811511321538322 21.914719415221708 -5 -1 0
788 2 5.52681931407641 1.7882996367303632 24.35169932440307 -5 -1 0
680 1 7.034821352914726 13.915062694538996 22.07751878140956 -5 -3 0
734 2 7.546492403932817 0.07782704681836533 23.618988646774213 -6 -2 0
113 2 11.413316667624342 1.6777151850024914 22.79448083956758 -6 -1 -1
704 1 11.004062230750234 0.9405557259596873 21.421164061354297 -6 -1 0
726 1 11.833176923304665 2.4132062891900437 24.20346260792449 -6 -1 0
728 2 13.25766282350852 2.1852064224332075 24.984432225256462 -6 -1 0
692 2 1.7916780991843784 5.383532662993333 22.514770966006704 -5 -1 0
15 1 1.74721364087207 6.229098462740691 21.065063321025 -5 -2 -1
779 1 1.806957936787842 5.371611037636741 24.152776544362474 -5 -1 0
45 2 5.297825402608963 5.5304669913427595 21.825541901893583 -6 -1 -1
50 1 6.433342348425446 4.317025347693549 21.98586394467273 -6 -1 -1
725 2 6.971370261121224 4.593121638645789 23.540496410929403 -5 -1 0
773 2 10.526973271550512 6.400225114531398 23.567698644274397 -6 -1 0
790 2 12.62554185485662 5.525160874413294 22.101231681270065 -6 -1 0
787 1 11.860379649833465 5.514200859441809 23.601280473182747 -5 -1 0
609 2 11.732116657053536 3.943030976594657 23.854231195814066 -6 -1 0
651 2 2.012918216189507 7.792776662101375 21.430543183676477 -5 -1 0
634 2 2.859903293941142 10.013018085388564 22.06551428651594 -4 -1 0
43 1 3.3050170426703906 8.468393946071716 21.965659622817565 -6 -1 -1
638 2 4.751841305932206 8.227176078911926 21.05452381407198 -5 -1 0
730 2 3.7046428262679516 8.015424916813515 23.477549224125255 -6 -2 0
59 1 5.8515354593395195 7.078771880898429 21.584569007381727 -5 -1 -1
722 2 6.355227753958349 7.55147094718397 23.061670684332732 -5 -1 0
774 1 5.22525086592183 7.92176001285728 24.204556125186397 -6 -1 0
754 2 9.366325413093143 8.73390715455493 23.804963015767743 -6 -1 0
647 2 7.406800076807665 9.974075917254378 22.4488038130291 -6 -1 0
6 1 8.73179537325556 10.118839251362438 23.480561067469928 -6 -2 -1
701 1 9.602897369872622 7.328788335010048 24.569851312003735 -6 -1 0
671 1 13.621026185048391 10.064020547692007 24.526762162192874 -6 -2 0
712 2 0.18750634082696974 12.162965417907474 21.174258965262524 -5 -1 0
738 1 1.3019507276201994 13.002385698468265 21.91672867594716 -5 -2 0
54 2 1.1190180689974047 12.7177176707719 23.518064865793505 -5 -1 -1
715 2 2.877943386483813 12.543986999046055 21.72350587993388 -5 -1 0
622 2 3.203651304816889 11.428223293680295 24.263319022121376 -6 -2 0
719 1 3.5764709186243753 11.380280164285526 22.545160408864017 -5 -1 0
771 2 5.125770973465548 11.231749068394905 22.183381789007882 -5 -2 0
577 1 6.589875826835128 10.987519086859999 21.534584219990172 -5 -2 0
696 2 7.2197886901335 12.47934503799377 21.613650695592355 -5 -2 0
702 2 9.678453911654149 11.169262208533763 22.667487315825355 -6 -1 0
718 2 10.216545562023397 13.712636325885844 21.70248643238142 -5 -2 0
670 2 13.591647290532286 10.345944171055699 22.879120080732935 -6 -2 0
674 1 13.259532517559187 10.998777365931469 21.409651757792858 -6 -2 0
625 2 11.893481444448835 11.77257214531342 21.344619513292592 -6 -2 0
667 1 10.697721546236943 12.338028125383254 22.351735135096778 -6 -2 0
689 2 11.332594260165589 12.903600248049521 23.764385997343357 -6 -1 0
776 2 1.472141781578925 1.4761952459465084 25.653943139402436 -5 -1 0
687 1 1.3971529020862912 0.376558929769841 26.907007954167035 -5 -1 0
721 2 14.05787716552703 0.25645732324637 27.600417968063702 -5 -1 0
688 2 2.3789843574968974 0.6337534567216698 28.15401997179911 -5 -1 0
753 2 5.939721880415597 14.014922781394239 25.94146884349 -6 -2 0
749 1 6.760538694159093 0.8119725756665636 24.901626938721527 -6 -1 0
765 2 7.878911535380779 1.7695428637798358 25.788686342855296 -5 -1 0
22 1 9.262410960495266 2.598776098052892 25.883909048140616 -6 -1 -1
750 2 9.551720252938456 3.0637656309395913 27.383553970854983 -6 -1 0
697 2 10.525965147768714 1.9159747784921002 25.09499334615154 -5 -1 0
775 2 1.0383490168589424 6.714309966045219 24.70108146008295 -5 -1 0
46 2 0.9850838357245443 4.086416680083871 24.948292380320293 -5 -1 -1
686 2 3.3011348285374225 5.423000111196327 24.773427859267926 -6 -2 0
716 1 3.9185181602509687 6.172227802386938 26.170304479962233 -5 -1 0
694 2 4.144207814433694 4.8558546106061415 27.102227929491665 -4 -1 0
764 2 5.179781989004957 7.067745037079645 25.55387049348629 -5 -2 0
32 2 6.988161706812568 4.6891257231874794 26.306551083370355 -6 -1 -1
663 1 7.772739031343702 4.973409977690284 24.86881378246894 -6 -2 0
24 2 9.068536574483469 4.084807082534976 24.967940626300383 -6 -1 -1
731 2 8.24662660247207 6.585346897868291 24.654553538774337 -6 -2 0
25 1 6.900811425168861 5.124741479132888 27.958908037368765 -6 -1 -1
48 1 9.79399654183861 4.390685849689978 28.259086794456344 -6 -1 -1
724 2 12.741057311575418 6.124472688505395 24.81975778778939 -5 -1 0
669 2 10.60634336827529 5.612366878168019 27.624703044964 -6 -2 0
708 2 13.918307297926454 7.211305644384179 27.00739604212208 -6 -1 0
18 2 3.134129164256031 7.291732344694955 27.090317826165855 -5 -2 -1
714 2 3.2959387496746624 9.72026277265497 26.11946930798466 -5 -1 0
693 2 5.509440986354342 9.472250115028743 24.514610124335285 -5 -1 0
732 1 3.545991247547458 8.855869140126313 27.451866058086317 -5 -2 0
703 2 5.126291731703658 8.899114233556634 27.830240851332952 -5 -2 0
28 2 9.048451916006394 10.209835691979123 27.47178526256937 -6 -1 -1
761 2 8.169554879610542 10.964550053268674 24.791373457681935 -5 -2 0
614 1 13.856044698433474 7.164306043817366 25.404603213190804 -5 -3 0
666 2 13.404142016964302 8.635712956539088 25.04683361134835 -6 -2 0
785 2 10.424632783095122 7.678841851915879 25.973747194203415 -6 -1 0
60 1 10.551374599960099 7.232764787866011 27.535547954177552 -6 -1 -1
33 2 0.8915845558116083 10.78744567501447 25.208161471991584 -5 -2 -1
49 2 1.9433665804084854 13.153092711271498 26.038945845714093 -5 -1 -1
793 1 1.7316315056601062 12.117542650093592 24.919203221707015 -5 -1 0
746 1 4.395656911486215 10.44180020072455 25.17913482209029 -5 -2 0
66 2 5.185400821963455 11.552444832179562 25.8583277042182 -6 -2 -1
780 1 5.897719082856897 12.677808903464634 26.824799287034228 -5 -1 0
61 2 5.06727531736106 12.785666588807823 28.165683919690053 -5 -1 -1
782 2 7.427449788085499 12.182399434153501 26.86312657117998 -5 -1 0
745 1 8.68577107979879 11.31680565605237 26.3008142524422 -5 -2 0
4 2 10.160124993448326 12.062470494837612 26.058331883025744 -6 -2 -1
756 2 12.154359086729398 13.586894217272494 26.002886977055777 -6 -2 0
709 2 12.37921440488388 10.94551092024469 25.275904347318725 -6 -2 0
713 1 11.529657750802912 12.28073981930356 25.2549025278877 -6 -2 0
767 1 12.609059830042291 13.657110042911892 27.518299701164988 -5 -2 0
762 2 1.9302101530148588 1.7906263472130632 30.674654779024408 -5 -1 0
30 1 3.104148993287378 1.328465726739335 29.479330359003118 -5 -1 -1
760 2 4.085235515643896 0.26358047528336187 30.171475405662843 -5 -1 0
83 2 3.7508464869616316 2.5858500019152917 28.676089966904136 -5 -1 -1
792 2 9.182382120710267 0.08930129069051956 29.834721827298782 -5 -1 0
11 2 11.472688559531061 0.3421767011652979 28.343754664931346 -6 -1 -1
10 1 10.784472011407358 0.3419108016296133 29.90529825987425 -6 -1 -1
665 2 11.347233157627427 1.638665340217193 30.69640525986134 -6 -1 0
93 1 10.995756810195749 3.2103614395048137 30.934607478890275 -6 -1 -1
39 2 1.305745129487344 5.608508620902453 31.283036309137856 -5 -1 -1
34 1 2.885453899405416 5.102557865062814 31.16177782168324 -5 -1 -1
116 2 3.082574378940314 4.981046295645876 29.56680433630572 -5 -1 -1
747 1 4.1323052021523 4.141774084991826 28.565244287681985 -5 -1 0
52 2 5.814664049574621 4.369653442463108 28.9052142478019 -6 -1 -1
7 2 6.795189980818278 6.8018045505891465 27.855005672395716 -6 -1 -1
676 2 8.33015065321885 4.869362730120844 28.71165047428175 -5 -1 0
55 2 9.814024584164175 3.2231293659938873 32.02974098836943 -6 -1 -1
91 2 10.640943644729749 3.901919415440029 29.53056521686739 -6 -1 -1
96 2 12.326534889389459 3.9577837954098394 31.519626919074792 -6 -1 -1
85 1 0.3875529084613089 6.969481569133201 31.080633646901017 -4 -2 -1
3 2 0.2497251104452097 7.448733718808808 29.510114134016227 -6 -2 -1
710 2 2.751381456301209 9.453392738770065 28.731489800043633 -5 -2 0
159 2 13.76681658051157 9.63409871277816 28.330110257136806 -6 -2 -1
40 2 5.212618405351578 7.405823640048194 29.861538317459665 -5 -1 -1
672 1 6.165435273851733 7.974299371871002 28.750186900232364 -6 -2 0
75 1 4.763347793120466 7.435501674980009 31.42738640047329 -5 -2 -1
757 2 7.300282691343319 9.018445964275525 29.135581605959015 -6 -2 0
751 1 8.812385430349192 9.363375634644237 28.749692585593046 -6 -2 0
742 2 9.391524218124014 7.766190223948011 28.53625991433286 -5 -2 0
781 2 9.654144324779603 9.903829323843379 30.085689947099116 -6 -1 0
100 1 13.483922028100999 8.090714414287662 28.2944910488885 -6 -2 -1
741 2 11.834454260172391 8.110424497323308 28.160555450853423 -6 -2 0
9 2 2.021715166654434 10.390578645384918 31.005821559672487 -5 -2 -1
94 1 13.838056782829455 11.178263839585304 28.907259275680957 -6 -2 -1
37 2 1.2932603753070144 11.620485970369234 28.808686985328457 -5 -2 -1
35 1 2.5822117999040644 10.912813093870241 29.539264089025433 -5 -2 -1
98 2 13.996384809970879 13.412248716249453 31.529410590142103 -6 -2 -1
758 2 3.844171175483054 11.794137732519415 29.795715005766368 -5 -1 0
740 1 4.994462795649288 13.016998122871787 29.872140594886268 -5 -2 0
82 2 5.367376531727258 12.547570614681232 31.44681984351942 -5 -2 -1
735 2 6.620620648958411 13.660209753452266 29.593584602761993 -6 -2 0
90 1 7.870764226628104 13.545108265283956 30.59867167763647 -6 -2 -1
733 2 8.328399633477403 12.018105480133585 30.816385168491244 -6 -2 0
86 1 9.037611841048074 10.643119078416827 31.44942167245967 -5 -2 -1
104 2 13.008949339345115 12.148563484214288 28.054105153031312 -5 -2 -1
769 2 13.164839127393273 11.215830250143137 30.364850392124524 -6 -2 0
783 2 11.412363460723281 13.235878164082273 30.702895535659923 -6 -1 0
109 1 12.710984125263973 12.460289967442085 31.223052652228375 -6 -2 -1
65 2 1.060572687716396 3.0808912286015038 33.16990393952433 -5 -1 -1
759 1 2.249188324528946 2.3921683717966356 32.27703656432613 -5 -1 0