LAMMPS data file via write_data, version 2 Aug 2023, timestep = 7, units = metal

3 atoms
5 atom types

0 15 xlo xhi
0 15 ylo yhi
0 15 zlo zhi
0 0 0 xy xz yz

Masses

1 28.0855
2 15.999
3 12.011
4 1.00784
5 18.998

Atoms # atomic

3 5 6.937631720492778 8.591085393175845 7.129659911928681 0 0 0
1 3 7.5138952466936395 7.47304091181584 7.522767675598889 0 0 0
2 5 7.48552553861136 7.528082810537594 8.839185431622425 0 0 0

Velocities

3 0 0 0
1 0 0 0
2 0 0 0
