ITEM: TIME
0
ITEM: TIMESTEP
0
ITEM: NUMBER OF ATOMS
4
ITEM: BOX BOUNDS xy xz yz pp pp ff
0.0000000000000000e+00 1.5000000000000000e+01 0.0000000000000000e+00
0.0000000000000000e+00 1.5000000000000000e+01 0.0000000000000000e+00
0.0000000000000000e+00 1.5000000000000000e+01 0.0000000000000000e+00
ITEM: ATOMS id element xu yu zu vx vy vz fx fy fz
1 C 7.500000000000000 7.500000000000000 7.500000000000000 0.000 0.000 0.000 -0.211 1.100 -3.855
2 F 7.500000000000000 7.500000000000000 8.813379903908000 0.000 0.000 0.000 0.081 -0.823 -0.184
3 F 6.286689214331000 7.852824949755000 6.861539277958000 0.000 0.000 0.000 2.292 -1.153 1.552
4 F 8.467126686893000 6.835250034984000 6.631053297529000 0.000 0.000 0.000 -2.163 0.876 2.487
ITEM: TIME
0.001
ITEM: TIMESTEP
1
ITEM: NUMBER OF ATOMS
4
ITEM: BOX BOUNDS xy xz yz pp pp ff
0.0000000000000000e+00 1.5000000000000000e+01 0.0000000000000000e+00
0.0000000000000000e+00 1.5000000000000000e+01 0.0000000000000000e+00
0.0000000000000000e+00 1.5000000000000000e+01 0.0000000000000000e+00
ITEM: ATOMS id element xu yu zu vx vy vz fx fy fz
1 C 7.495455992227828 7.523687795203133 7.417010432851869 0.000 0.000 0.000 1.364 1.459 1.706
2 F 7.501751171060962 7.482282482785438 8.809421811012816 0.000 0.000 0.000 0.086 -0.713 -2.342
3 F 6.336044301666591 7.827995081191853 6.894945702579052 0.000 0.000 0.000 -0.024 -0.787 -0.290
4 F 8.420564436268618 6.854109625558576 6.684594532951263 0.000 0.000 0.000 -1.427 0.040 0.926
ITEM: TIME
0.002
ITEM: TIMESTEP
2
ITEM: NUMBER OF ATOMS
4
ITEM: BOX BOUNDS xy xz yz pp pp ff
0.0000000000000000e+00 1.5000000000000000e+01 0.0000000000000000e+00
0.0000000000000000e+00 1.5000000000000000e+01 0.0000000000000000e+00
0.0000000000000000e+00 1.5000000000000000e+01 0.0000000000000000e+00
ITEM: ATOMS id element xu yu zu vx vy vz fx fy fz
1 C 7.535138765580076 7.582483779642488 7.422333375483013 0.000 0.000 0.000 0.100 2.823 1.054
2 F 7.505429486900066 7.450041795888223 8.734562169578169 0.000 0.000 0.000 0.148 -0.780 0.156
3 F 6.363597509204202 7.789384518243124 6.905107179377425 0.000 0.000 0.000 -1.013 -0.435 -0.599
4 F 8.349650139539655 6.866164890965166 6.743969754956394 0.000 0.000 0.000 0.765 -1.608 -0.611
ITEM: TIME
0.003
ITEM: TIMESTEP
3
ITEM: NUMBER OF ATOMS
4
ITEM: BOX BOUNDS xy xz yz pp pp ff
0.0000000000000000e+00 1.5000000000000000e+01 0.0000000000000000e+00
0.0000000000000000e+00 1.5000000000000000e+01 0.0000000000000000e+00
0.0000000000000000e+00 1.5000000000000000e+01 0.0000000000000000e+00
ITEM: ATOMS id element xu yu zu vx vy vz fx fy fz
1 C 7.553756775466191 7.667983924681036 7.447369807073111 0.000 0.000 0.000 0.429 0.736 -1.785
2 F 7.510156925274091 7.419799684491889 8.706910921099182 0.000 0.000 0.000 -0.042 -0.552 1.679
3 F 6.353075067759707 7.763961236610877 6.896349441823606 0.000 0.000 0.000 -0.406 -0.038 -0.074
4 F 8.336827132724011 6.836330138955199 6.755342309399102 0.000 0.000 0.000 0.019 -0.146 0.181
ITEM: TIME
0.004
ITEM: TIMESTEP
4
ITEM: NUMBER OF ATOMS
4
ITEM: BOX BOUNDS xy xz yz pp pp ff
0.0000000000000000e+00 1.5000000000000000e+01 0.0000000000000000e+00
0.0000000000000000e+00 1.5000000000000000e+01 0.0000000000000000e+00
0.0000000000000000e+00 1.5000000000000000e+01 0.0000000000000000e+00
ITEM: ATOMS id element xu yu zu vx vy vz fx fy fz
1 C 7.565892257765926 7.704000466789126 7.426004232804768 0.000 0.000 0.000 -0.067 -0.562 -0.079
2 F 7.510826184170321 7.402401968165781 8.725839008979548 0.000 0.000 0.000 0.060 0.136 -0.047
3 F 6.343610477450071 7.756135320919130 6.892676525256637 0.000 0.000 0.000 0.042 0.153 0.010
4 F 8.333486981837682 6.825537228864963 6.761452712354046 0.000 0.000 0.000 -0.035 0.273 0.116
ITEM: TIME
0.005
ITEM: TIMESTEP
5
ITEM: NUMBER OF ATOMS
4
ITEM: BOX BOUNDS xy xz yz pp pp ff
0.0000000000000000e+00 1.5000000000000000e+01 0.0000000000000000e+00
0.0000000000000000e+00 1.5000000000000000e+01 0.0000000000000000e+00
0.0000000000000000e+00 1.5000000000000000e+01 0.0000000000000000e+00
ITEM: ATOMS id element xu yu zu vx vy vz fx fy fz
1 C 7.566282981200795 7.701025155209985 7.423084674577660 0.000 0.000 0.000 -0.142 -0.424 0.116
2 F 7.511575034755232 7.402294436717917 8.727103179556293 0.000 0.000 0.000 0.058 0.145 -0.138
3 F 6.343190664811403 7.757134252532375 6.892438045960538 0.000 0.000 0.000 0.045 0.128 -0.001
4 F 8.332767220456569 6.827621140278722 6.763346579300510 0.000 0.000 0.000 0.040 0.151 0.022
ITEM: TIME
0.006
ITEM: TIMESTEP
6
ITEM: NUMBER OF ATOMS
4
ITEM: BOX BOUNDS xy xz yz pp pp ff
0.0000000000000000e+00 1.5000000000000000e+01 0.0000000000000000e+00
0.0000000000000000e+00 1.5000000000000000e+01 0.0000000000000000e+00
0.0000000000000000e+00 1.5000000000000000e+01 0.0000000000000000e+00
ITEM: ATOMS id element xu yu zu vx vy vz fx fy fz
1 C 7.562369172711882 7.689361487614268 7.426277050969246 0.000 0.000 0.000 -0.051 0.001 -0.085
2 F 7.513161401215298 7.406286119553626 8.723322260415427 0.000 0.000 0.000 0.011 -0.006 0.143
3 F 6.344431191659749 7.760660473348021 6.892420285691157 0.000 0.000 0.000 -0.050 0.045 -0.017
4 F 8.333854135637074 6.831766904223084 6.763952882319169 0.000 0.000 0.000 0.091 -0.039 -0.041
ITEM: TIME
0.007
ITEM: TIMESTEP
7
ITEM: NUMBER OF ATOMS
4
ITEM: BOX BOUNDS xy xz yz pp pp ff
0.0000000000000000e+00 1.5000000000000000e+01 0.0000000000000000e+00
0.0000000000000000e+00 1.5000000000000000e+01 0.0000000000000000e+00
0.0000000000000000e+00 1.5000000000000000e+01 0.0000000000000000e+00
ITEM: ATOMS id element xu yu zu vx vy vz fx fy fz
1 C 7.559858614391395 7.686470007261046 7.424543358775985 0.000 0.000 0.000 0.050 0.044 0.040
2 F 7.513887183000753 7.407095648648143 8.726637152915183 0.000 0.000 0.000 -0.007 -0.009 -0.025
3 F 6.343244049271697 7.762874760433238 6.891922778216136 0.000 0.000 0.000 -0.044 -0.012 -0.012
4 F 8.336826054560156 6.831634568396572 6.762869189487698 0.000 0.000 0.000 0.001 -0.022 -0.004
ITEM: TIME
0.008
ITEM: TIMESTEP
8
ITEM: NUMBER OF ATOMS
4
ITEM: BOX BOUNDS xy xz yz pp pp ff
0.0000000000000000e+00 1.5000000000000000e+01 0.0000000000000000e+00
0.0000000000000000e+00 1.5000000000000000e+01 0.0000000000000000e+00
0.0000000000000000e+00 1.5000000000000000e+01 0.0000000000000000e+00
ITEM: ATOMS id element xu yu zu vx vy vz fx fy fz
1 C 7.560241015201377 7.686656134216639 7.424903558147975 0.000 0.000 0.000 0.022 0.030 0.008
2 F 7.513904945349705 7.407094725791621 8.726885843837399 0.000 0.000 0.000 -0.007 -0.010 -0.034
3 F 6.342212831599792 7.763115204471696 6.891602077016991 0.000 0.000 0.000 0.008 -0.018 0.010
4 F 8.337457109073126 6.831208920259042 6.762581000392636 0.000 0.000 0.000 -0.023 -0.001 0.015
ITEM: TIME
0.009000000000000001
ITEM: TIMESTEP
9
ITEM: NUMBER OF ATOMS
4
ITEM: BOX BOUNDS xy xz yz pp pp ff
0.0000000000000000e+00 1.5000000000000000e+01 0.0000000000000000e+00
0.0000000000000000e+00 1.5000000000000000e+01 0.0000000000000000e+00
0.0000000000000000e+00 1.5000000000000000e+01 0.0000000000000000e+00
ITEM: ATOMS id element xu yu zu vx vy vz fx fy fz
1 C 7.560939281015310 7.687585578225777 7.425199729180919 0.000 0.000 0.000 -0.006 0.012 -0.020
2 F 7.513684628619104 7.406780325627252 8.725869569265713 0.000 0.000 0.000 -0.002 -0.007 0.009
3 F 6.342356145240029 7.762580201781614 6.891882026583262 0.000 0.000 0.000 0.010 -0.004 0.007
4 F 8.336835846349556 6.831128879104357 6.763021154365108 0.000 0.000 0.000 -0.002 -0.002 0.004
ITEM: TIME
0.01
ITEM: TIMESTEP
10
ITEM: NUMBER OF ATOMS
4
ITEM: BOX BOUNDS xy xz yz pp pp ff
0.0000000000000000e+00 1.5000000000000000e+01 0.0000000000000000e+00
0.0000000000000000e+00 1.5000000000000000e+01 0.0000000000000000e+00
0.0000000000000000e+00 1.5000000000000000e+01 0.0000000000000000e+00
ITEM: ATOMS id element xu yu zu vx vy vz fx fy fz
1 C 7.560902347977522 7.687909946291743 7.424868612715779 0.000 0.000 0.000 0.002 0.002 0.002
2 F 7.513631075758283 7.406625432920259 8.725921152787807 0.000 0.000 0.000 -0.000 -0.000 -0.001
3 F 6.342555989562795 7.762455927828307 6.892041602732062 0.000 0.000 0.000 -0.002 -0.000 -0.001
4 F 8.336726487925400 6.831083677698691 6.763141111159354 0.000 0.000 0.000 0.000 -0.001 -0.000
ITEM: TIME
0.011
ITEM: TIMESTEP
11
ITEM: NUMBER OF ATOMS
4
ITEM: BOX BOUNDS xy xz yz pp pp ff
0.0000000000000000e+00 1.5000000000000000e+01 0.0000000000000000e+00
0.0000000000000000e+00 1.5000000000000000e+01 0.0000000000000000e+00
0.0000000000000000e+00 1.5000000000000000e+01 0.0000000000000000e+00
ITEM: ATOMS id element xu yu zu vx vy vz fx fy fz
1 C 7.560942869240116 7.687977719234903 7.424872743551102 0.000 0.000 0.000 0.000 -0.000 0.001
2 F 7.513620481583633 7.406602716857873 8.725905400036192 0.000 0.000 0.000 0.000 0.000 -0.001
3 F 6.342526369791715 7.762438417962350 6.892045393390678 0.000 0.000 0.000 -0.001 0.000 -0.000
4 F 8.336726180608537 6.831056130683874 6.763148942417031 0.000 0.000 0.000 0.000 0.000 0.000
ITEM: TIME
0.012
ITEM: TIMESTEP
12
ITEM: NUMBER OF ATOMS
4
ITEM: BOX BOUNDS xy xz yz pp pp ff
0.0000000000000000e+00 1.5000000000000000e+01 0.0000000000000000e+00
0.0000000000000000e+00 1.5000000000000000e+01 0.0000000000000000e+00
0.0000000000000000e+00 1.5000000000000000e+01 0.0000000000000000e+00
ITEM: ATOMS id element xu yu zu vx vy vz fx fy fz
1 C 7.560947211911166 7.687969907832065 7.424884040853358 0.000 0.000 0.000 -0.000 -0.000 -0.000
2 F 7.513621260960063 7.406605943599564 8.725892757611081 0.000 0.000 0.000 0.000 -0.000 -0.000
3 F 6.342517969418026 7.762441957261516 6.892044551547777 0.000 0.000 0.000 -0.000 0.000 0.000
4 F 8.336729458934744 6.831057176045855 6.763151129382789 0.000 0.000 0.000 0.000 -0.000 0.000
ITEM: TIME
0.013
ITEM: TIMESTEP
13
ITEM: NUMBER OF ATOMS
4
ITEM: BOX BOUNDS xy xz yz pp pp ff
0.0000000000000000e+00 1.5000000000000000e+01 0.0000000000000000e+00
0.0000000000000000e+00 1.5000000000000000e+01 0.0000000000000000e+00
0.0000000000000000e+00 1.5000000000000000e+01 0.0000000000000000e+00
ITEM: ATOMS id element xu yu zu vx vy vz fx fy fz
1 C 7.560941081519765 7.687962106728060 7.424877203023182 0.000 0.000 0.000 0.000 0.000 -0.000
2 F 7.513622690199716 7.406606259294557 8.725887083398922 0.000 0.000 0.000 -0.000 -0.000 0.000
3 F 6.342512310270223 7.762449726529922 6.892050546919070 0.000 0.000 0.000 -0.000 -0.000 0.000
4 F 8.336739819234296 6.831056892186462 6.763157646053830 0.000 0.000 0.000 0.000 -0.000 0.000
ITEM: TIME
0.014
ITEM: TIMESTEP
14
ITEM: NUMBER OF ATOMS
4
ITEM: BOX BOUNDS xy xz yz pp pp ff
0.0000000000000000e+00 1.5000000000000000e+01 0.0000000000000000e+00
0.0000000000000000e+00 1.5000000000000000e+01 0.0000000000000000e+00
0.0000000000000000e+00 1.5000000000000000e+01 0.0000000000000000e+00
ITEM: ATOMS id element xu yu zu vx vy vz fx fy fz
1 C 7.560942063549704 7.687964171050536 7.424876201524035 0.000 0.000 0.000 0.000 0.000 -0.000
2 F 7.513622507740793 7.406605239249013 8.725886553047932 0.000 0.000 0.000 -0.000 -0.000 -0.000
3 F 6.342508950161540 7.762450544494206 6.892051226322994 0.000 0.000 0.000 0.000 -0.000 0.000
4 F 8.336742379771962 6.831055029945244 6.763158498500042 0.000 0.000 0.000 -0.000 0.000 0.000
