LAMMPS data file via write_data, version 2 Aug 2023, timestep = 938, units = metal

3573 atoms
5 atom types

0 30 xlo xhi
0 30 ylo yhi
0 200 zlo zhi
0 0 0 xy xz yz

Masses

1 28.0855
2 15.999
3 12.011
4 1.00784
5 18.998

Atoms # atomic

1 1 0.9127660844308858 2.6484554350007317 3.333510535622455 0 0 0
3308 2 2.341922549000641 2.484485778161482 4.1222089765702465 1 0 0
3252 2 0.8147806974188208 1.9450799755893475 1.8313865555587738 0 0 0
3304 1 1.1127097737250007 1.4608935299545434 0.24602774512260597 1 0 0
360 2 4.923381569218751 2.8649503944482113 4.156031196575954 0 0 0
3268 2 0.4946104204296376 4.2046771267669705 3.1196883419278203 0 0 0
3324 2 2.5575851586496974 0.6622085075121573 0.2223519517223952 0 0 0
2 2 3.2576924269080973 4.185432291111854 0.30420266027194387 0 0 0
3539 2 5.787077790986608 0.5435979930580893 3.4047840789837336 0 1 0
65 1 6.259219194662751 2.0448634331187 3.7113676379180798 0 0 0
58 2 6.896357788509458 2.706639397031474 2.3842303063647354 0 0 0
691 2 9.363003093031164 1.9080836731043769 2.1146265174825514 0 0 0
54 1 8.076280637651866 2.4368325644431277 1.27400759062679 0 0 0
14 2 8.167690002718297 3.9681531425701384 0.639222105326327 0 0 0
162 2 5.749379091162549 4.890559407819647 0.8040333857266104 0 0 0
17 2 9.567358325622477 4.839369817079151 3.53423762076489 0 0 0
3541 2 7.840784065933543 1.1982361556981762 0.11326469061809785 0 1 0
3267 1 10.624558314931908 1.7024219228869124 3.0999240610167385 0 0 0
677 1 13.249865722087698 2.2144974371334376 1.4852467537408858 0 0 0
56 2 13.792324702111653 3.723411853995336 1.141707671604663 0 0 0
366 2 11.853727359396565 2.360941541064334 2.3111640364009123 0 0 0
19 2 14.282356778112757 1.5484788850411477 2.6010690989886167 0 0 0
679 2 12.987039293616384 4.501475340954477 3.6037435123570694 0 0 0
18 2 10.948027648028171 0.1872146954723746 3.587810912946144 0 0 0
3544 2 13.089630869134224 1.2399130874865705 0.22751129136158585 0 1 0
153 1 0.45341174873165274 7.969332747858694 1.2541567569783223 0 0 0
53 1 4.234061741473771 5.399096566484348 0.9642286034334991 0 0 0
43 2 4.00035611830296 5.597444446264565 2.5735711028757646 1 0 0
355 2 1.6969162720444237 8.968512521624051 1.6601123205143402 0 0 0
603 1 3.6115034399602846 6.367408145373621 3.9148126426804897 0 0 0
394 2 3.6201493419416693 8.018892068941959 4.044170653653492 0 0 0
109 1 3.029866813806588 9.687811918459332 1.073363579744367 0 0 0
52 1 0.6356829753375809 5.749590082085474 3.595921408881756 0 0 0
3430 2 4.446386201709542 9.395739975588139 1.913805215270314 0 0 0
3573 2 0.5301896479882365 6.6504229859538055 2.2292921966990704 1 1 0
3322 2 3.908438773586207 6.685334143443507 0.15532910574692588 0 0 0
117 1 7.296663605225985 5.340112882372397 0.8595243111177696 0 0 0
3316 2 7.6312513464851675 6.161632195190449 2.2407257905235407 0 0 0
75 1 9.078140143814048 6.29313205787932 3.004141628004623 0 0 0
161 2 6.778108817236122 9.062128236409956 0.5855814418334079 0 0 0
408 1 6.025664260651175 9.8978476649541 1.7718618683386507 0 0 0
107 2 6.48724531857768 9.885072549235353 3.370549246341282 0 0 0
402 2 10.075877502197695 6.744605036170514 1.782179122556526 0 0 0
326 1 13.620341430305315 4.970416548456827 2.1853067460315567 0 0 0
399 2 14.329572827199115 8.440729495192564 2.7563825180751835 0 0 0
411 2 11.838654243294645 8.664991610036072 1.7492102279835542 0 0 0
59 1 11.45564639659858 7.169186405403001 1.096636953367376 0 0 0
989 2 12.70113415532299 6.073689958924814 1.4433600613512596 0 0 0
121 1 13.971111149975554 9.484060952217813 3.9744459351544146 0 0 0
451 1 2.864854077610373 14.892747666158956 2.8218620135475785 0 0 0
98 2 0.4682498417613756 12.433149383908246 0.6542109715476957 0 0 0
3422 2 2.8158066336134686 13.617673587291478 1.7867803788307237 0 0 0
3413 1 2.0978541837995985 12.68731408157867 0.6343813035301185 0 0 0
172 2 2.7954959914474933 11.28508945006227 0.9530359421091493 0 0 0
101 2 4.270265136420026 14.978762786600992 3.6850105856874547 0 0 0
124 2 6.894278297790216 13.962407572036751 0.9056652582344529 0 0 0
460 2 6.099636680492399 11.44989108032433 1.33400454342623 0 0 0
3435 2 8.493671585190427 12.357778369370415 2.0498878973863186 0 0 0
174 1 6.904619898329591 12.755242445350225 1.8993832407425297 0 0 0
453 2 6.221667272650358 13.21308546054577 3.315350632449946 0 0 0
167 1 9.435151721179988 11.756020918717361 3.24608481934264 0 0 0
365 2 14.952019940728757 11.74289456191691 0.7135002815984846 0 0 0
157 1 11.597358421819067 10.187814979926376 2.2642906094787953 0 0 0
103 2 10.182400573984753 10.312684341411188 3.13191695385835 0 0 0
111 2 12.795571893351024 10.439084850632042 3.4030013747586287 0 0 0
3439 2 10.515061493898859 12.920013242509413 3.6321998673812557 0 0 0
168 1 11.712865548705855 14.010226925529217 3.765753709638438 0 0 0
181 2 12.61279487230404 14.086625658529645 2.401302480549549 0 0 0
3372 2 11.367556843302745 11.224351968513224 1.0912373418211438 0 0 0
3491 1 13.395154348449871 14.69891558339913 1.070621401252903 0 0 0
11 1 3.6616441126786827 2.4029780990866345 5.080286382288668 0 0 0
3263 2 3.627493880365184 3.436595223776693 6.375057327335225 0 0 0
600 2 3.8904355225353777 0.8637160812203043 5.644607848136833 0 0 0
304 1 4.84156154322819 4.014485378458243 7.336426140138279 0 0 0
6 1 4.720103499790151 0.01115740091452028 6.773063737779718 0 0 0
346 2 0.15509414803312577 4.185563768730856 8.438028201742718 0 0 0
968 2 7.374399556834297 2.0067603243147163 4.918994829245532 0 0 0
551 2 6.270658512500869 3.540158524733488 6.7274362775738865 0 1 0
560 1 7.66162434418991 2.866530810872137 6.268585145437106 0 1 0
358 2 8.238288889662394 1.957640969458076 7.509352231954447 0 0 0
3557 2 8.760561036049433 4.032124990114459 5.93431141417809 0 1 0
307 2 5.032106760786848 1.017676605549026 8.000361815224233 0 0 0
562 1 10.008925966486041 4.045591825093629 4.893620181643542 0 1 0
400 2 10.384712180211524 2.5214289407467647 4.4995364475190724 0 0 0
1602 1 10.770461867360432 12.173889655052424 23.268282724141134 0 0 0
21 1 12.872297822712836 4.430576866875798 5.2126411705369815 0 0 0
258 2 11.307008185658372 4.758457285972958 5.586650623957196 0 1 0
317 2 13.269658758549387 2.969449374810593 5.766034283823439 0 0 0
321 1 13.55344185165861 1.8066230712034241 6.833345060257881 0 0 0
637 2 12.519336922454869 0.6108299853297261 6.540831778494982 0 0 0
398 2 2.0872346527926924 5.915316027239525 4.332143310536745 0 0 0
308 2 4.819252496029859 5.911988117310291 4.93214984311117 0 0 0
352 1 3.631339476721428 8.70721700093692 5.52920441643348 0 0 0
652 2 2.294905360665656 8.14886733094745 6.247436250476646 0 0 0
649 2 0.2463764568488999 8.133001670851472 7.683793653552866 0 0 0
1006 1 1.8001505144837033 7.696300525236376 7.708778800234634 0 0 0
648 2 1.8739351406913998 6.086034469560705 7.989427954632059 1 0 0
412 2 8.984278730867333 7.282358174300995 4.292039673820704 0 0 0
353 2 4.9706783412339135 5.646863253246728 7.464799976207451 0 0 0
463 2 4.919763411551241 8.132582312593296 6.383708795284608 0 0 0
669 2 7.662033349931562 9.204103680230112 5.592465424075067 0 0 0
354 1 5.504834895233138 6.602294150228803 6.241686855466455 0 0 0
671 1 8.303384102350575 7.751036408583316 5.71951709206396 0 0 0
347 2 7.135098697186228 6.677458434766312 6.140327193974722 0 0 0
116 2 9.4018923028069 7.994314516110836 6.889879267712809 0 0 0
119 2 13.424225871136205 8.51738895555627 5.170882371208499 0 0 0
693 2 13.914632035890445 5.478614804853855 5.8817263077500295 0 0 0
630 2 14.447490479823863 7.455079855003657 7.455178394411329 0 0 0
474 2 11.88549212553656 7.354457949330673 7.033997656641053 0 0 0
415 1 13.199477329548298 8.284378897179154 6.753918624959844 0 0 0
627 1 14.448645961533021 5.808377103340402 7.392575939814472 0 0 0
413 1 10.528444565134558 7.460389430244554 7.926531395390914 0 0 0
173 2 13.000494404799865 9.759329725318766 7.37947861409388 0 0 0
141 2 4.242205094642843 12.897505022896874 5.187528976844545 1 0 0
703 2 3.6013984406584085 10.331518348637243 5.537420360258781 0 0 0
746 1 4.534516400242927 11.56546831872108 6.083518302852123 1 0 0
461 2 0.8341284040244663 14.80276918316676 6.559988194393735 0 0 0
385 2 4.18320490655402 11.927115153806257 7.644411171236176 1 0 0
802 1 0.19265746315161686 14.243082793324424 7.944343411188736 0 0 0
721 1 7.133666759772544 10.453312324822754 4.741025566528394 0 0 0
444 1 5.279225213227383 13.920229369710485 4.439833954450072 1 0 0
606 2 8.350657710717794 11.481004950132778 4.450393099155972 0 0 0
454 2 6.087334364956156 11.18318308205141 5.778472618794387 0 0 0
760 2 8.543548106153754 13.019004216488844 6.410559766772134 0 0 0
762 2 6.31992074504201 14.50886918519739 5.585019923576149 0 0 0
801 1 7.8680842992935265 14.517491856609533 6.109019218839096 0 0 0
1218 1 9.53287737151387 12.36982269444605 7.565710333813942 0 0 0
3438 2 14.883948751752898 12.72799902262748 5.321996852765346 0 0 0
357 2 10.731608765659876 11.342580032601099 7.076597459265545 0 0 0
118 1 13.682499223305443 13.335976851603299 6.209797452182559 0 0 0
165 2 12.52298514858961 13.659718876674788 5.13440596842726 0 0 0
417 2 14.261284845419599 14.644313072497589 7.0004769505247815 0 0 0
723 1 12.196293782908338 11.094187112377947 7.823267574514578 0 0 0
221 2 10.265483459724612 13.656915872734196 8.260829914492428 0 0 0
686 2 13.149431875632533 12.343887209472879 7.404336365555704 0 0 0
855 2 4.6753331537632326 3.426470891554074 8.854532684105882 0 1 0
883 2 0.4047672961958877 1.5900307766968675 12.305195997548516 1 1 0
554 2 2.2023141144668488 4.579039566275829 10.196683192181613 0 1 0
555 2 1.9448381043056466 0.178897154651716 10.564508659230707 0 1 0
909 1 4.9155078334430735 4.9988919344272915 12.421363808702745 0 0 0
1160 2 4.316857353663966 1.33097995757094 10.52823792220846 0 1 0
910 1 2.714588826696832 4.47656817104152 11.740052783458435 0 0 0
657 1 0.4941465315837903 0.8798495082496663 10.83347784577912 0 0 0
569 2 4.147931181921311 3.636623298428823 11.822260025148667 0 1 0
870 2 0.16663972140525343 1.9278929792351274 9.627843041509003 0 1 0
328 2 10.218076443991785 0.9687605176312256 12.247460821184033 0 0 0
265 2 9.4491092053076 1.9497954221959612 9.895418877932876 0 1 0
62 2 6.782238723660919 1.9932851950315482 9.767242336311709 0 0 0
565 1 8.16751308707967 2.4922021758086497 9.065681345600895 0 1 0
264 2 8.185849671878186 4.110980147946773 8.977506257064501 0 1 0
314 1 5.203226051390304 1.9429010670492617 9.321789566953932 0 0 0
625 1 13.44673130004093 2.046264324219229 9.965639649425254 0 0 0
1030 2 12.01233143031432 1.4596733239749269 10.434417735693883 0 0 0
914 2 14.643488225059457 1.0330481839541714 10.425369264451305 0 0 0
3556 2 13.676999158272459 3.5204931011025984 10.61039121402016 0 1 0
31 2 10.792052000758266 3.4516226492952917 11.704969450462247 0 0 0
570 1 10.592731584221564 1.9860265355617766 11.052860121815812 0 1 0
578 2 13.378406970582942 2.281256734840997 8.366646234982507 0 1 0
608 2 0.8319798070253063 7.758710338672618 12.151298128248499 0 0 0
658 2 3.0383577592041213 9.01973574005366 11.308765925986696 0 0 0
667 1 1.9397720537384158 8.916998977512291 12.49045767131192 0 0 0
659 2 3.4468758759682054 5.826672905514883 12.409448578349343 0 0 0
487 2 4.991447614047361 7.624067153607743 9.981785545636356 0 0 0
356 1 3.850252225133572 8.773049873597197 9.931661341388466 0 0 0
47 2 2.692323939048743 8.429742649879215 8.839958383845458 0 0 0
895 1 1.127286298891083 5.257104028539409 9.177435075717712 0 0 0
676 1 6.378708419785657 7.04250434564172 10.647541268705078 0 0 0
908 2 7.096785424193797 8.076100475157059 11.639707204443548 0 0 0
856 2 5.996823326866996 5.624304848095778 11.404007361737602 0 1 0
662 2 9.333605704632806 5.493190863076301 10.892897891546507 0 0 0
605 2 9.912089513861082 6.040046740471427 8.428209870253463 0 0 0
720 2 7.415034609204836 6.610408198579659 9.43037510391777 0 0 0
661 1 8.685161880814205 5.58987432930764 9.41094328872974 0 0 0
636 1 13.4159390462864 5.041126683767344 10.085618777091437 0 0 0
922 2 14.514257143823674 7.948518445371764 12.113753623564099 0 0 0
416 2 12.17543240367751 9.135122698374076 11.570882606672887 0 0 0
916 2 12.027324037090462 5.5820043742321195 10.750896775456548 0 0 0
681 2 14.675796217994746 5.930379995064185 10.510513598574 0 0 0
628 1 11.245573223840386 9.592933869532589 10.281268596701084 0 0 0
920 1 10.726221727468573 5.067742005001449 11.600515155347939 0 0 0
685 2 10.915617244310088 8.364943003120919 9.241694950543344 0 0 0
329 2 13.383765828546847 5.169688935935927 8.457701628949108 0 0 0
1285 2 2.79299503115211 12.053327323242947 10.093197970868562 0 0 0
705 2 0.8924245079121473 13.578458158660162 11.547444011929349 0 0 0
714 2 1.0785105254175753 10.293356764514943 12.63570297195795 0 0 0
1298 1 1.3556652434699503 12.808744727376007 10.166778890603199 0 0 0
706 1 4.179649874358755 11.72962160773533 9.274067759338266 0 0 0
448 2 1.4285667669785085 13.91580411402732 8.960316459288752 0 0 0
666 2 4.5659812603384 10.172112655659008 9.52767616439511 0 0 0
159 2 0.20357357247042226 11.695186198869276 9.827115822193921 0 0 0
501 2 7.13061567790613 14.224795285106097 10.92762405843709 0 0 0
450 2 9.737789697246365 12.733769979019488 11.016025737599909 0 0 0
670 1 6.369859986395694 12.792145184077174 11.159663136006534 0 0 0
710 2 7.421024230700706 11.54403494241415 11.027744705226267 0 0 0
465 1 8.911166390178122 11.472047268185039 10.36786983548475 0 0 0
770 2 9.768399275767072 10.129319717651297 10.755478959305973 0 0 0
316 2 8.714378614035985 11.581550347067555 8.739952094244137 0 0 0
940 2 5.2825511535421406 12.698294976514445 9.95993227028482 0 0 0
232 2 11.989837488751093 12.379049385625276 12.319310277611969 0 0 0
468 2 13.981888923221494 13.595776253307248 10.951513705722343 0 0 0
1015 2 11.956484487880934 10.831447306035233 9.434671623838518 0 0 0
1341 2 7.829147113485016 14.658523055686848 24.52145170891956 0 0 0
951 1 0.6217485103797173 2.7887848884868354 13.396120517041963 0 0 0
306 2 1.3267480062118862 2.1862160547572618 14.72251991342597 0 0 0
599 2 1.5204673763538892 3.9473457168769817 12.693997121646383 0 0 0
882 2 3.2941304688186404 2.143875329330891 16.385192303898066 1 1 0
1154 1 1.6784785978431045 2.187041159383002 16.311479552458003 0 1 0
906 1 4.427334408925319 1.2213062974215667 15.688322244374579 0 0 0
1159 1 6.079080805263677 3.5699179213565473 14.955378641135223 0 1 0
1148 2 7.683661436916623 3.304311433620003 14.82262561802925 0 1 0
975 2 5.587283976178897 4.671763143107971 13.860012649274731 0 0 0
1280 2 5.354304199281584 2.1298321987589404 14.704340051747119 1 0 0
943 2 5.654883485186348 4.073340851998246 16.446787023122003 0 0 0
974 1 9.052954013853359 3.724604176200859 15.591133636923685 0 0 0
1210 1 11.675598284993654 2.400727076833084 16.099185805179168 0 0 0
962 1 14.473804919252737 3.7468041350844943 16.011690960065152 0 0 0
1165 2 12.151820275454263 0.8722326237425613 15.743215617763282 0 1 0
611 2 12.862604936682608 3.505524611701461 15.785054977260057 0 0 0
1093 2 10.345717681837005 2.7797126396390293 15.196552595087368 0 1 0
965 1 4.386149371702881 8.986177065077973 14.1715625263389 0 0 0
674 2 2.815957810586491 8.650443284833706 13.83637155245871 0 0 0
963 2 4.586168151634869 8.76205500147448 15.777237888897874 0 0 0
832 2 8.100367893628622 9.421296678370835 13.42955054953577 0 0 0
912 1 9.540505951513829 6.348663961458114 14.072560097702583 0 0 0
1018 2 8.134363542079349 6.672797989245274 13.368333784205259 0 0 0
722 1 7.162687183965743 8.040404279991863 13.395680828289652 0 0 0
673 2 5.440373332814473 8.033371384957103 13.36934991213462 0 0 0
954 1 5.969056269107726 8.077962748232338 16.337902970052486 0 0 0
418 2 7.103447956019953 7.964659499862843 15.191188359566397 0 0 0
632 2 9.39058757056426 5.279329499256781 15.29005382098628 0 0 0
925 2 12.691098748316843 7.913277647204572 14.030601331500531 0 0 0
977 1 13.288756751449146 8.787988580785658 12.760091597524434 0 0 0
665 2 10.692362248280213 5.73473232903995 13.070707734719145 0 0 0
857 2 10.156054868796115 7.729905660697568 14.681237408314338 0 1 0
972 2 11.764352232295042 9.616336275880304 15.714099424104209 0 0 0
955 2 11.721734366381657 7.099883203816739 16.641639600321355 0 0 0
1065 1 11.626545882972565 8.047247289815289 15.280879390871451 0 0 0
718 2 4.974437630454493 12.653423453683528 15.290613383182958 0 0 0
644 1 0.2843300760423556 11.234354227771812 13.693431117561941 1 0 0
663 2 4.736871543701083 10.543992818378216 13.786516529103118 0 0 0
1347 1 0.8186358410715739 13.993693647725701 13.149107767665166 0 0 0
1376 2 1.2186169802806324 12.584230111192188 13.892571416397335 1 0 0
896 2 0.14217604470946466 10.493167805099027 15.131714203079264 0 0 0
457 1 4.6932051993186725 14.167571013300153 15.788261836937659 0 0 0
777 2 9.64702070595203 11.56200808838583 13.382572783522107 0 0 0
713 2 7.20518471406828 11.603057669686603 14.514276736514912 0 0 0
1007 1 8.56039098638693 10.71479366768257 14.252266994571938 0 0 0
678 1 5.661612048677715 11.853400418626793 14.040486097328722 0 0 0
401 2 5.669810801989534 12.723506554680256 12.64355671890974 0 0 0
1048 2 9.321962746024134 10.473184467845607 15.680130421300865 0 0 0
458 2 6.062046895516054 14.87441770225653 16.3222311567872 0 0 0
983 1 14.925275593312094 11.301694124977548 13.954348313316428 0 0 0
1069 2 12.758944991430266 14.763374060274067 13.15410170352692 0 0 0
1053 1 13.27016875222994 13.392305162816328 12.42441854898145 0 0 0
779 2 14.427296290554292 12.72997991498638 13.356802587362388 0 0 0
1061 1 10.392546991988358 12.70397538132073 12.512432402817044 0 0 0
735 2 13.979088688720053 10.133374805676004 13.376467674813675 0 0 0
858 2 10.22576167322314 14.128555380850804 13.284749089242828 0 0 0
1025 1 10.701244699133882 10.553862157117752 16.520730904985722 0 0 0
1411 2 14.826420717959945 11.44958619998365 15.590088075644898 0 0 0
1229 1 1.777101241787074 4.896980648846151 17.822127447684718 1 0 0
696 2 1.1928090609435025 3.5265079703311693 17.120235315293733 1 0 0
1247 2 1.6364075114981331 4.777332223034585 19.45853260387737 0 0 0
1134 2 1.0905250335666425 0.8094715372055309 16.96597497816103 0 1 0
1196 2 7.569289209113207 0.4391368968370713 20.294604054015377 0 0 0
957 2 9.394713317807796 3.1879801341527436 19.68537983250373 0 0 0
616 2 8.814007447745345 3.5895889721398837 17.20382434711501 0 0 0
1096 2 5.283880866661525 0.6731287107954332 16.957295081256174 0 1 0
981 2 14.995304751110748 0.5220712217441518 20.753110311784884 0 0 0
624 2 11.19809585794739 2.5383594746472475 17.6819554918232 0 0 0
971 2 14.779203893746384 4.151647317082191 17.54785266230425 0 0 0
1140 1 10.06209442775701 3.6009659094370026 18.26064696891545 0 1 0
1248 1 4.815195973364463 5.792192624734704 20.217137489563186 0 0 0
1246 2 4.117204035282709 7.132755945595911 19.56165926621893 0 0 0
905 2 3.56348470804841 9.725530013555794 19.314604246551745 0 0 0
1591 2 1.5822230212598432 7.968740454554216 19.22902451182923 0 0 0
1635 2 0.8761825473735985 6.198116417894193 17.38806929739401 1 0 0
717 1 3.03004078357875 8.29361080071449 19.89497399181201 0 0 0
995 1 0.4035400163578395 7.559941200854674 18.179117879935646 1 0 0
1243 2 3.3113167696912353 5.119269886887325 17.27992316505173 0 0 0
1241 2 0.14864196840914343 8.767783523152774 17.114835196472498 0 0 0
617 1 9.239389163131404 8.212744322218951 19.978995765104266 0 0 0
969 2 9.729797996688333 7.4617099190598655 18.606676153529893 0 0 0
1120 2 6.516429101452414 9.060523712035604 17.52900191537729 0 0 0
622 2 8.101138658284635 9.307179567950023 19.615449184122568 0 0 0
668 2 5.5610935063618765 6.64322886442336 16.980867342095745 0 0 0
610 1 4.948530580954395 5.200592393386232 17.383046224814713 0 0 0
1198 2 5.350956858418947 4.910518141669579 18.948169456133016 0 0 0
1020 2 14.124375958826816 7.76549024944403 20.848814700398048 0 0 0
1014 2 10.510462814173067 8.849344196970097 20.820362333242713 0 0 0
1606 1 13.190686601400403 6.538431582686986 20.372037186454513 0 0 0
1204 2 12.194719165165166 7.081267822977426 19.22308741212331 0 0 0
1294 1 11.087717266788053 6.678260612945424 18.112779285343564 0 0 0
1255 2 14.188314584870142 5.507704533563705 19.638976671260107 0 0 0
1319 2 14.845979533852404 9.233699612068506 17.956529043431367 0 0 0
959 2 10.76764606225109 5.0777396122125005 18.232646617522505 0 0 0
950 2 2.4399740160616985 14.817262195418158 19.34318217649763 0 0 0
946 1 0.22757327232410024 12.091143438100442 18.5339596428338 0 0 0
1293 1 2.819158488220557 11.153370519554544 19.5539453366053 0 0 0
953 2 3.4413008783898746 12.394004280042632 18.691305210399772 0 0 0
945 1 2.627545402552758 13.71167599278978 18.147599463611588 0 0 0
462 2 3.4642511500310893 14.250433488726712 16.859342078690194 0 0 0
708 2 1.111917251374392 13.223764153043728 17.72167746749441 0 0 0
1335 2 1.2420939168088665 10.98905165442154 19.171232244798716 1 0 0
1357 2 9.73930610058238 14.740604818421906 20.14225733186447 0 0 0
1353 2 8.41242053323687 12.542107429158142 20.288874963728862 0 0 0
1302 1 9.881808461591557 13.189617118229135 20.560781241758413 0 0 0
680 2 8.367976084005736 11.230947166350388 17.879681942230828 0 0 0
1013 1 7.652573974878811 12.37179501664661 18.850993463897474 0 0 0
967 2 6.35464037961429 11.349484861696112 19.090025786152587 0 0 0
1291 2 7.622091281952922 13.77629257866013 18.084179924637297 0 0 0
1287 2 5.549852089734991 14.845895135537884 19.64167239908098 0 0 0
682 1 7.281707661808412 10.094638568843209 18.46398960346787 0 0 0
212 2 1.6339897611710115 14.93090476642392 3.9036028746694753 0 0 0
1312 1 11.629527254629615 11.480494773652609 18.496404792317023 0 0 0
1404 2 11.011900460309061 12.408996080353273 19.679510923552893 0 0 0
1304 2 13.203496605232472 11.229293812302329 18.83184925910938 0 0 0
1253 2 10.80352309827289 10.076923533358482 18.13352669937994 0 0 0
1023 2 11.348713935196761 12.0482203918426 16.930962543599783 0 0 0
1356 1 14.714388366039678 10.625894922433012 18.82043968395786 0 0 0
437 2 0.20200924174944387 6.236494979139259 10.071530400136567 1 0 0
1235 2 3.6948218244495155 4.97200446534123 21.076115904771505 0 0 0
1548 2 1.5118317947169524 3.6467301969208363 21.87634153279044 0 0 0
1743 2 1.8478978699870932 1.7699699953249186 23.65346444243651 0 1 0
1250 2 0.13801584081247203 3.7788546005690007 24.232562223893805 0 0 0
1444 2 3.900935205838903 0.07523480931790151 23.702425889365678 0 1 0
1752 1 2.7060592952119156 0.7841232202991335 24.611923436937357 0 1 0
2008 2 2.8108034244323123 4.143123265171429 24.201294014735566 0 1 0
1446 1 1.5141292956776389 3.3572876735646906 23.502911201728832 0 1 0
1145 2 8.923618055518018 4.461075057480241 21.955190001793753 0 1 0
1504 1 6.958562159468712 0.9085115089299833 21.722461627050762 0 0 0
1457 1 9.109978815872063 3.0074227633704718 21.282033778297766 0 1 0
2218 2 7.723727953669949 2.3276898595036744 21.84669357443078 0 0 0
1231 2 5.314990861229077 1.0089940264164365 21.663689661895518 1 0 0
1958 2 11.894422736322934 12.88241631040409 24.177474669083853 0 0 0
1197 2 8.448207207178136 4.207990580304206 24.664729490329428 0 0 0
1266 1 14.753613933698638 1.9268753229052646 21.51870958876301 0 0 0
1503 2 13.153504518213683 2.0542223995088733 21.7863603052134 0 0 0
1399 2 10.432328117105174 2.2051909685764253 21.81352289600711 0 1 0
1471 1 12.907537190620914 0.05003179598092226 24.027532266513443 0 1 0
921 2 14.166350417985175 0.930864436310685 24.535481359506488 0 0 0
1141 2 11.718104329823314 1.1533650469756802 23.823131509900797 0 1 0
819 2 11.95477704520716 3.811987535471771 23.295123811790383 0 1 0
1458 1 11.806990179158504 2.3186184020580014 22.668472677648435 0 1 0
952 2 2.9512360001417415 8.399487588373646 21.531076912865185 0 0 0
1239 2 1.4673456036028483 6.297067885003237 21.78170346393787 0 0 0
1245 1 2.055840644286737 4.926325388405427 21.0340614889307 0 0 0
1767 2 1.0770974239324969 5.958349862585696 24.99967769871667 0 1 0
1456 2 3.2776177180171726 6.71200796412817 23.69346585423143 0 1 0
1292 1 2.2379256441665394 7.473687140293639 22.669409844575725 0 0 0
1553 2 1.396078905523354 8.506591634797022 23.624703680513196 0 0 0
1499 1 2.656107704458135 5.655994392232411 24.798959749889576 0 0 0
1964 2 8.439091425583465 7.196021001557946 20.971246197725183 0 0 0
958 1 7.118405930507366 7.12099726730298 21.93553726946103 0 0 0
1554 2 6.415990259741542 8.576917614311867 22.21738940711664 0 0 0
964 2 6.030145294033747 6.1681362559015955 21.202494247672007 0 0 0
1605 1 5.915784541342458 9.752453636267926 23.234174740353296 0 0 0
1259 2 9.320158994844503 9.338846249458948 23.072817052375168 0 0 0
1256 2 7.641721782276763 6.366299031847083 23.300964396488823 0 0 0
1810 1 8.794892846874681 5.207355162801131 23.39451616318772 0 0 0
2145 2 5.444108134821925 9.03832513023001 24.61222827189574 0 0 0
1307 1 10.786482895311583 9.356690112665385 22.347216611625857 0 0 0
1873 2 12.347317850438253 5.834312775055322 21.588899794587675 0 0 0
1355 2 11.362500784871864 10.887397317486608 22.442632233972514 0 0 0
1826 1 12.115128204648835 7.739929480528092 24.614980938270588 0 0 0
1260 2 12.637147476156118 6.23320884142051 24.23560747481604 0 0 0
1021 2 14.29397857611742 9.284028308453877 22.87648277545448 0 0 0
1608 2 11.86380279220079 8.45415083223145 23.160667363278 0 0 0
1203 1 11.81285693744892 5.41413618727565 23.079274756288847 0 0 0
1199 2 10.285616097188834 5.872782647902857 23.46514046157176 0 0 0
1401 2 1.5921829553378302 14.844526743885915 21.91153712755305 0 0 0
1297 2 5.168667883187218 12.942824033494011 21.427605282080464 0 0 0
1360 2 2.875148949945755 11.54910231269323 21.125392386505656 0 0 0
1009 1 4.00585363164209 12.059485466099085 22.162092962354453 0 0 0
1300 1 0.33370942484027727 12.107323815790185 24.9157242044307 0 0 0
1596 2 0.8181850692264437 13.421206029273147 24.07664630874723 0 0 0
1295 2 1.3879135933119575 10.8692467855157 24.767652340043778 0 0 0
1603 1 2.058106764421743 14.186462818626897 23.34361975177737 0 0 0
1060 2 3.2564226384066273 13.072863733728937 23.197540794642343 0 0 0
966 2 4.708698575610858 10.715152399217986 22.735593959118276 0 0 0
1008 2 10.225698049755204 13.201755354469633 22.142355507006155 0 0 0
1004 2 6.9019978340751535 14.871797002672526 22.02118685988326 0 0 0
1612 1 5.508826103174251 14.502288464036944 21.243007707221352 0 0 0
1919 2 9.536786400931135 11.700540649350273 24.243439914964622 0 0 0
1922 2 7.157423856780277 10.75424568256994 23.594954199428336 0 0 0
1258 1 8.619761163132484 10.353486308201623 24.14178830014139 0 0 0
1501 1 2.553315731985883 2.177736160651424 27.321934258979404 0 0 0
1788 2 3.218964703429621 1.5869739241472325 25.954234090404523 1 1 0
1497 2 3.04725413614534 3.719979720409302 27.619143998632783 0 0 0
1729 2 3.0765914077459593 1.3434724447700055 28.623922014977982 1 1 0
1194 2 0.8976834116084834 2.0510936253145937 27.2855200912748 0 0 0
2046 1 8.861485391102 0.15265572281197645 25.93617255709395 0 1 0
1823 2 7.30315685304332 2.4248931046962845 29.51784918644255 0 0 0
1511 2 8.272491918406397 3.712446408714571 27.359291927544966 0 0 0
1257 1 9.05118233285158 3.3804719902991485 25.95043026932676 0 0 0
1814 2 8.99439435263849 1.7638440381812817 25.73957274726451 0 0 0
2375 1 8.170578635212236 3.6734624983642976 28.99140784423914 0 1 0
1818 1 11.74556282639457 4.386889544164794 27.084470728329173 0 0 0
1808 2 11.794353914809722 3.3918325600022023 28.36839336012026 0 0 0
2109 2 13.163282841297143 4.155841410368959 26.36093552976753 0 0 0
1827 1 14.761074290133594 3.960507687861006 26.56832979787505 0 0 0
1813 2 10.59300534549952 3.8712832931929975 26.069624807239283 0 0 0
1862 1 4.615000528703054 9.64358681030085 25.868920577179665 0 0 0
1190 2 0.6118291659014212 8.770410429567082 26.217545641673766 0 0 0
1547 2 3.103021592297172 9.06695461818931 25.739767404370102 0 0 0
1442 2 3.0636058672747266 6.107449922863282 28.941476007417265 0 1 0
1238 2 3.4639895001130583 5.891709798600248 26.213989946848283 0 0 0
1244 1 3.6619224936787824 5.213944254484238 27.66400364358588 0 0 0
2311 2 10.157080722438574 0.11254689612834551 29.902240126616057 0 1 0
1812 1 9.857818434388472 8.93866564919627 26.303632994501484 0 0 0
1506 2 9.530740144587424 7.97516324178 27.589649360271096 0 0 0
2154 1 6.267225033368698 9.114015893301842 28.587995953599467 0 0 0
1856 2 6.618573303119546 7.517661692864842 28.841668680271525 0 0 0
1251 2 8.526695019152331 9.546173216706846 25.574335110377806 0 0 0
2151 2 5.441923131615722 9.187492804349459 27.199700517557503 0 0 0
2504 2 5.263934670624513 5.251455817791943 28.068333510805516 0 0 0
2839 2 10.688901186341138 14.478602400365865 48.31774472059248 0 0 0
1557 1 14.310697706027796 9.079832122350215 26.534764172364383 0 0 0
1564 2 11.920063188360158 8.337678689671145 28.592807867221993 0 0 0
1918 2 11.402161127999754 5.934748454960641 27.53770411217882 0 0 0
1569 1 10.775267973191726 7.217387932086055 28.351019343900152 0 0 0
2170 2 13.16728020971394 8.222688229844044 25.751790350187665 0 0 0
1663 1 12.70384531426366 9.707580323948726 29.001396596401303 0 0 0
1578 2 13.91708660482258 9.806187752081023 27.931508472630647 0 0 0
1316 2 10.6633295468709 7.918023244667743 25.333323755315483 0 0 0
1943 2 0.37115508311715006 10.97896841325075 28.8123467295051 1 0 0
1955 2 4.892924680747786 12.65397609584721 28.071731478694993 0 0 0
1551 2 2.557967503482759 11.574948617107932 27.52500919785267 0 0 0
1901 1 1.1048226065966553 12.17056337951966 27.969327074842436 0 0 0
1556 1 3.8510219961159566 12.319604982287462 26.8805913190582 0 0 0
1283 2 1.3800036285197907 13.41230033735979 29.042735247533148 0 0 0
1604 2 4.556415934964751 11.290667064856606 25.827725205669505 0 0 0
1805 2 3.380638546346991 13.703716034638981 26.18140715066768 0 0 0
1249 2 0.28038081592620506 12.495487059957874 26.549791969847234 0 0 0
1560 2 7.018728806991012 13.749161578745872 26.886947242321895 0 0 0
1861 2 7.146744307533508 12.672893078434356 29.30722382553507 0 0 0
1600 1 8.230894208047303 11.47539263896683 29.30445689195531 0 0 0
1995 2 9.429723750433569 11.904880248278104 28.27952245228267 0 0 0
1921 1 6.228786019281209 13.537282435439309 28.30667358787111 0 0 0