LAMMPS data file via write_data, version 2 Aug 2023, timestep = 5000, units = metal

2368 atoms
5 atom types

0 30 xlo xhi
0 30 ylo yhi
0 100 zlo zhi

Masses

1 28.0855
2 15.999
3 12.011
4 1.00784
5 18.998

Atoms # atomic

1 1 0.480403505985753 2.8873054048549407 3.7517708517824975 0 0 0
2 2 2.0321485903931698 2.9396566915170284 4.272714326068599 0 0 0
3 1 3.415399817266978 2.6929391851907347 3.450117558177749 0 0 0
4 2 3.2457691558223316 2.0147491724791853 1.9605249210822264 0 0 0
5 2 4.13295812617906 4.096973435802752 2.982844080028995 0 0 0
6 1 3.563209154020919 0.8361798363895887 0.8786717130329769 0 0 0
7 2 0.40482546908042466 3.785702534208894 2.3665812460895976 0 0 0
8 2 4.312470847040442 1.7005685926810772 4.447645591690926 0 0 0
9 2 8.566773638640296 2.9483462549160047 3.3310202029107185 0 0 0
10 1 8.240988555025945 4.519829930328382 3.27023709460612 0 0 0
11 2 6.817551074134583 4.68097381518984 2.48520673412335 0 0 0
12 2 6.964377663697901 0.32544866509366527 1.5006750239611395 0 0 0
13 1 5.4467465622869335 4.943644333268755 3.389709771075846 0 0 0
14 1 7.38428807591917 0.9849300224469659 0.049160111702892806 0 0 0
15 2 14.581081155829857 0.42332071098921975 0.821218206203468 0 0 0
16 2 13.57299742596445 3.9512372348204945 0.14200249394592807 0 0 0
17 1 0.16445012694285627 7.38280069902166 2.486165035882844 0 0 0
18 2 0.5949625260420714 7.468913700232882 4.006664734741216 0 0 0
19 2 1.4388837744258534 6.598163172679973 1.6892465326584185 0 0 0
20 2 3.948265766366142 7.111952282316287 0.7663891228543934 0 0 0
21 1 2.355601210890879 6.949519730675628 0.32955206803134324 0 0 0
22 1 0.25817798631948613 9.036637653361474 0.2422490713743339 0 0 0
23 2 0.07387248813582753 8.9584373347395 1.908846231012119 0 0 0
24 2 5.005422102534232 8.966170901781275 2.5664557838245656 0 0 0
25 1 8.23397518766629 7.806407445708084 0.39760436312022246 0 0 0
26 1 5.211439770115871 7.510697008911293 1.7814105788320094 0 0 0
27 2 5.0809952474123214 6.464331537219142 2.9739045335327954 0 0 0
28 2 6.700370571980214 7.577324252579018 1.061561153367598 0 0 0
29 2 9.325445458432956 6.786167339159029 0.9739395830394061 0 0 0
30 2 9.624198497292223 5.289969040839507 2.850958618484037 0 0 0
31 2 9.04453362289659 9.340768055263169 0.39586977176905674 0 0 0
32 2 9.96151520712166 7.9189643105182155 3.2765226014326285 0 0 0
33 1 10.285103322913063 6.658705810126248 2.3173867531406467 0 0 0
34 2 11.679868774390274 8.784692546236675 0.7755094241196991 0 0 0
35 1 12.799240047973232 7.695057159524187 1.3002868581132587 0 0 0
36 2 11.880504202441882 6.622779366410148 2.2030619951329284 0 0 0
37 2 14.21881169925039 8.245194097897754 1.9955753967278396 0 0 0
38 1 10.105131158700978 9.074345222707539 4.411001884937455 0 0 0
39 1 14.68676487062312 9.414693627062642 3.063180995065449 0 0 0
40 2 13.249247251957254 6.746094072756892 0.022552926793464323 0 0 0
49 1 12.787197343162568 8.756510596479659 5.591545093672557 0 0 0
42 2 13.786969067030975 14.177769777479071 5.001238150015837 0 0 0
43 2 6.169809834193814 10.204228516423239 4.784680368200995 0 0 0
44 2 9.080965337047742 0.691493908845992 4.618777112966728 0 0 0
45 1 8.965454998631975 2.311708884501169 4.758890234777119 0 0 0
46 2 5.628676888040658 4.390104216527844 4.921185900330333 0 0 0
47 1 2.1191202783121614 10.496880646235843 5.039043806267789 0 0 0
48 2 4.49772815607905 13.632547732132906 4.807957099836202 0 0 0
79 2 13.844581663024169 14.718440900129185 2.443887880534749 0 0 0
50 2 14.05538548494371 10.793261709625789 2.3384456633996646 0 0 0
51 1 14.785884522769468 11.208622507808126 0.8422818238787145 0 0 0
52 2 14.546951519180714 12.782918510138146 0.7656067759150498 0 0 0
53 1 10.764001609680408 12.456281877135073 0.44866920302642327 0 0 0
54 1 4.825433711038432 0.23878392065275736 4.880287246321435 0 0 0
55 2 11.92613140103903 13.309719320296004 1.2709151048594738 0 0 0
56 1 13.434541951136614 13.8411559380515 1.144329273909732 0 0 0
57 2 9.88487817730196 12.072885183001597 1.7740131302814468 0 0 0
58 1 9.97818502882613 14.441084206158271 4.0660579278463755 0 0 0
59 2 9.857985029817673 12.865502527047022 4.366358024636655 0 0 0
60 2 9.289187397357543 10.341656828674271 3.870904907957772 0 0 0
61 2 7.627140087441929 12.18904051379975 3.135767547813216 0 0 0
62 2 0.9913190177967002 10.949234702707626 4.009644509792621 0 0 0
63 1 9.184200993118214 11.84253778071215 3.266457848175734 0 0 0
64 2 5.932387841927337 13.967521673934879 2.4578310597250206 0 0 0
65 2 1.4352605280648492 13.345703558274963 3.1743729789562303 0 0 0
66 1 6.455133151258039 12.479140757276447 1.9718930109733273 0 0 0
67 2 6.847419216971652 12.382457419854456 0.429009968559273 0 0 0
68 2 5.223680420075785 11.469058844401964 2.472503136163642 0 0 0
69 2 7.934675217884985 5.162002427879841 4.731086805713812 0 0 0
70 1 5.0208843704083925 10.28316236490034 3.5373338807908836 0 0 0
71 1 1.8789931157317432 14.511175563740837 1.9836712192317818 0 0 0
72 1 0.30480236858044013 12.182055783222669 3.217459077822242 0 0 0
73 2 13.988070941408445 8.87652888252622 4.456769519922182 0 0 0
74 2 1.8050558737253408 14.131208421797592 0.387383404569145 0 0 0
75 2 3.5540503403246406 10.26920944426121 4.28324620639773 0 0 0
76 2 11.597217452745058 9.623726863123835 4.818657712279817 0 0 0
77 1 4.767249806493269 14.554729736569582 3.415569221587932 0 0 0
687 2 11.53088378055858 14.7917938869847 3.874661612925773 0 0 0
81 1 0.783852714145173 7.67408435700524 5.571382760998537 0 0 0
78 2 10.277346765812142 3.043844201776934 5.36204836671867 0 0 0
620 2 9.16589247011052 14.848251207070021 2.744340679899075 0 0 0
41 2 3.415063795479012 14.79776356663849 2.6259355959366 0 0 0
1284 1 0.051861955412789824 6.209681373123031 9.913601538146567 1 0 0
95 2 1.1790894021560616 14.691647527425012 9.752278433776373 0 0 0
91 2 5.439212480281764 0.3992079284917904 6.352833090877211 0 0 0
1336 2 14.65250880798629 7.171071679526807 8.138697616846521 0 0 0
84 1 8.913473052433261 12.394034812775722 7.714042597927256 0 0 0
86 2 12.055192129614854 7.347740532858438 5.990226675454525 0 0 0
85 2 2.576893319865739 0.7794930883139929 10.090100109027306 0 0 0
88 2 7.216926777680235 2.714438419137591 8.960424713150573 0 0 0
98 2 6.954664861384201 0.042120741964977164 8.54922551340521 0 0 0
90 2 12.331544303227522 3.9876747136568067 6.778558610794076 0 0 0
162 1 12.304650891580655 14.710514335900701 10.356122827666509 0 0 0
97 1 13.489594969908955 10.689738222534118 10.231295923885616 0 0 0
92 1 6.650450028718528 10.826747990872567 6.224225774605091 0 0 0
93 2 3.8472910939513887 14.801115206336778 9.762068584173026 0 0 0
96 2 0.17190517653805282 12.348590358303122 7.21908230387719 0 0 0
157 1 4.019549216220232 5.1370594458032945 9.722377499963397 0 0 0
156 1 11.93783639135139 12.37629371319891 8.336028834858181 0 0 0
155 2 12.915389952764022 12.906703472219462 7.160070277523458 0 0 0
154 1 10.43666454693918 7.1325035427512535 6.4950603482463025 0 0 0
153 2 2.4438947620167157 12.576021828029413 8.810385992385148 0 0 0
152 2 4.776961396623586 14.27515491194601 7.412526954687176 0 0 0
151 1 7.013284214402229 12.139234775593392 10.150727288284063 0 0 0
150 1 5.237645730742688 14.572916874209307 8.957866865464311 0 0 0
149 2 8.13372784908088 11.593842388602399 6.481334559280522 0 0 0
148 1 5.478815421315477 13.614097898212817 6.096025042080324 0 0 0
147 1 2.545094616538252 13.820438924385082 9.91319855270891 0 0 0
146 2 10.243353144707177 5.558122650426494 6.173194673402427 0 0 0
145 2 12.24596192058358 2.918045317528516 9.24643686254966 0 0 0
144 1 10.636454522706696 2.7784081633320508 9.180885614842984 0 0 0
143 2 10.37791835481765 1.131199497339459 9.034009180603668 0 0 0
142 2 5.984090242240559 13.28322290179433 9.618213535569172 0 0 0
141 2 6.438481224925055 10.646706687824018 9.886200073775791 0 0 0
140 2 8.155858583877343 5.207892107328046 9.492891396324827 0 0 0
139 2 4.8828930775297374 1.68842493237562 9.217923718579264 0 0 0
138 2 5.4518684110136935 4.570952597228394 9.292372294975658 0 0 0
137 1 6.982109282205529 4.2871210797172825 8.767614299640636 0 0 0
136 2 5.81358037235188 8.110628174289433 9.283106847331506 0 0 0
135 1 6.528443288318487 1.347264145677232 9.48895987529149 0 0 0
134 2 1.663374506796556 6.468519335078699 6.250381638219871 0 0 0
133 1 11.137744008678506 7.155467625825625 9.338019159686608 0 0 0
132 2 11.628429640685766 5.659905411754292 9.445960705943646 0 0 0
131 2 14.449609912036943 9.470234824572223 9.629467259859119 0 0 0
130 1 1.2562034307054686 1.384490869231452 9.01904677504807 0 0 0
129 2 0.8403182638671711 2.9214980522620024 9.156826650884453 0 0 0
128 2 12.348975405562477 8.224069475686777 9.079019855486067 0 0 0
127 2 10.162511254247331 7.418273845784803 8.025262065817335 0 0 0
126 1 13.77738517203482 8.527083117795254 8.40411769768864 0 0 0
125 2 13.486913426241141 9.335328876677886 6.9953196005319755 0 0 0
124 2 12.676893680597981 11.03706111444371 8.8763979456761 0 0 0
123 1 5.702907072020508 9.682207900577115 8.833427242443966 0 0 0
122 2 6.477116686686308 9.759552599956402 7.396215151084476 0 0 0
121 1 2.2340441236668775 6.712329968491642 7.781364697423948 0 0 0
120 2 2.4108304858515344 1.2614762311365784 7.816364780220915 0 0 0
119 2 3.055513146210596 8.103187925600128 7.83079994965554 0 0 0
118 1 2.7024151159241914 9.385659860626898 8.753113763611527 0 0 0
117 2 0.9291198697845351 6.943995404420504 8.750615478562944 0 0 0
116 2 3.1160651374747275 5.454822143646117 8.365566126716274 0 0 0
115 2 14.3065036404841 4.501120637842244 8.626058709922052 0 0 0
114 2 14.033701372838362 2.185700674267587 7.458780166541266 0 0 0
113 1 13.199684628466882 3.4283146646725338 8.053070940040556 0 0 0
112 2 2.439318459956262 11.560188794014607 6.258855545231517 0 0 0
111 1 3.682831254808697 0.7420168988518255 8.721685912989209 0 0 0
110 2 5.703189726930666 12.09133191972248 6.552718101061597 0 0 0
109 2 6.966371102992703 4.8009332817968895 7.238656694553713 0 0 0
108 1 1.6376424050652383 11.741802764000022 7.668615515574617 0 0 0
107 2 8.399032557028535 12.180250426594466 9.272120533962987 0 0 0
106 2 9.942069757632058 3.5275758662575827 7.897000558573521 0 0 0
105 1 10.705117187664635 4.048853567049267 6.56302405355521 0 0 0
104 2 11.940097656575123 13.273413504951218 9.724849507080766 0 0 0
103 1 14.166752489043615 13.508961857571684 6.411352615883632 0 0 0
102 2 8.954590424483635 13.955695420497573 7.401447015963497 0 0 0
101 2 1.4142544401428518 10.2664758285555 8.271601272921352 0 0 0
100 2 4.128302415095297 10.210543973314147 8.78667181771026 0 0 0
99 2 10.499159046455338 11.877024028244383 7.780616747156363 0 0 0
94 2 2.3287965065311544 8.904726484457699 10.261603053093562 0 0 0
82 2 6.953025165630656 14.34387462158217 5.808304406304773 0 0 0
159 2 14.915503133524991 14.621999101587942 7.3329240298727605 0 0 0
158 2 0.09159298817144272 0.30719033850353905 9.33752201358363 0 0 0
87 2 12.838944790919223 0.03362743752553921 8.868981555013505 0 0 0
80 2 9.572107642382957 8.301605801385804 5.745237144505309 0 0 0
161 2 7.667006523716702 2.7053206594809924 5.719034878094259 0 0 0
89 1 7.040881449348789 4.2299188420150164 5.735284028893736 0 0 0
83 2 1.574139744345139 9.094087134684115 5.7139158218704535 0 0 0
189 2 12.859805265029678 6.588216941014251 15.075248626736954 0 0 0
201 2 0.4154919129453535 1.6036948042714476 14.410395929808395 0 0 0
168 2 5.812605180380338 11.029924637618029 13.694763874225663 0 0 0
169 2 3.017556895079502 2.2783834757314936 13.544358195787057 0 0 0
170 2 11.497507666698844 9.88375295975268 13.72487135383513 0 0 0
171 1 6.757108565924857 3.989728996732953 13.006523783705997 0 0 0
172 1 1.4477879289187545 1.848242701812129 13.116289654688634 0 0 0
186 1 7.507995190802416 8.370207115086528 12.828149652629559 0 0 0
202 2 1.659608218144497 0.33111492083147875 12.521483685130855 0 0 0
209 2 2.6934070325634165 13.31002643347006 11.4514915833375 0 0 0
173 2 1.052910682131311 2.953130479830137 11.98621450447263 0 0 0
174 2 7.498139177726226 3.938849408144284 11.553794552970459 0 0 0
175 1 13.58492703866418 3.7722427365652416 13.696686611905065 0 0 0
176 2 6.564805465467427 8.425268437733445 14.154984965400802 0 0 0
177 1 3.682664634964577 3.7829204084437955 13.712344625625509 0 0 0
178 2 9.627569596597233 5.521394579260076 11.879793345466654 0 0 0
179 2 2.821799019648356 10.71749210176405 12.049645042366294 0 0 0
203 2 10.17754637450042 13.591610338234561 14.983298324118563 0 0 0
180 1 3.1131346395308324 9.181697170351336 11.672747628554928 0 0 0
163 1 2.5544531388245817 8.584912360154245 14.325637294507363 0 0 0
164 2 7.268960636459544 12.365723750143736 11.765484047180307 0 0 0
187 2 11.515932323112146 7.151439012158844 12.872371640960287 0 0 0
188 2 2.6391191236825238 4.869531792530207 13.037878806566736 0 0 0
181 1 7.285885726594757 11.34569991808146 13.002895558363742 0 0 0
182 2 7.671731576667453 5.016306611975861 13.911800469687691 0 0 0
167 1 12.458011160175886 11.008906319526558 13.001838879027982 0 0 0
232 2 14.86360691756178 6.255654967013461 10.564406807968334 0 0 0
184 1 2.430308847216619 12.179478421058928 12.614593191983452 0 0 0
185 2 2.493413508941886 8.10239734473455 12.73987810742373 0 0 0
193 1 9.047169292635038 4.716026172738302 14.806903892036512 0 0 0
200 1 11.83820384441039 13.55950527341668 14.664510998108222 0 0 0
199 1 6.939214102750366 1.1506830313408103 14.437353435900723 0 0 0
198 2 4.064620171022346 9.12606257445146 14.616658632678664 0 0 0
197 2 1.3353282462739795 9.68427752642502 14.466248048409955 0 0 0
196 2 10.329596235274813 5.706098282578278 14.827456472887816 0 0 0
194 2 9.649017016300657 3.270447558015193 14.264080999948126 0 0 0
204 1 11.74447011670611 6.008965925248158 14.087774939264136 0 0 0
192 2 10.887395172649722 0.8090694249071577 14.593129710874523 0 0 0
191 1 5.582264981934752 9.628950653762598 14.614244591283729 0 0 0
205 2 6.697467264892666 7.4677694493291975 11.731621935436596 0 0 0
183 2 8.314662049537421 11.877607194611807 14.145631415062422 0 0 0
220 2 13.471124471005716 2.3564424763776914 12.798461508382914 0 0 0
219 2 13.230525539126784 14.777285645705344 11.706536916882328 0 0 0
218 2 12.232556198417456 4.584710144986777 13.375875212339434 0 0 0
217 2 8.962869344973148 7.748337502504405 12.998161441953634 0 0 0
216 2 0.7567521061502616 12.139224268668157 12.679344963102302 0 0 0
215 2 12.422386251941338 10.619489260312951 11.450086340856146 0 0 0
214 2 12.056305559039076 12.594627873377014 13.359018252112726 0 0 0
213 2 13.94482550797649 10.742518893706128 13.672797173895567 0 0 0
212 1 10.125005293819592 7.075363215349828 12.104457984886777 0 0 0
211 2 7.797432053253426 9.931580463880476 12.352359089652344 0 0 0
210 2 4.705871756624134 8.967317225798869 11.510266143335949 0 0 0
166 2 5.114199674391758 4.285365010336822 13.024948786681351 0 0 0
208 1 1.8468660473657628 4.37287767790669 11.652334202042967 0 0 0
207 2 6.841209236823614 2.5493679731849337 13.68915769755439 0 0 0
206 2 3.0948340042974243 12.382110028282568 14.078895099307488 0 0 0
221 1 14.294426192462918 10.135398805916237 15.159207341548903 0 0 0
195 2 9.22741229161356 0.09604145748001802 11.846176934618635 0 0 0
1411 1 14.803252130723124 1.5826044165340316 12.248213858641558 0 0 0
190 2 0.8871613141266167 5.505171170062605 11.108084258075808 0 0 0
165 2 14.819779926228325 8.560770982747137 15.07802168460581 0 0 0
225 2 10.23677513329824 7.767174352910572 10.597397925049922 0 0 0
230 2 4.299409928411437 6.464434087031645 10.721735321790025 0 0 0
227 2 6.755053021045279 1.071766907699176 11.058695853690585 0 0 0
229 1 8.85396940446435 4.523833710340507 10.838269644478464 0 0 0
236 2 9.839640025540733 3.3266400886870473 10.476296975318887 0 0 0
224 1 5.395438912637891 7.653512370314752 10.81114933275855 0 0 0
228 2 3.0575128851300106 4.119127328411017 10.555695125088159 0 0 0
1386 2 14.644199128157004 0.9897737721949085 10.678383061222819 0 0 0
226 2 14.469383102098337 11.890062006743861 10.830481546361357 0 0 0
222 1 9.80041573767801 1.9110230181946506 15.159891546583577 0 0 0
1369 2 14.92945083325494 4.512806858816237 13.289096129378612 0 0 0
223 2 5.53329462817117 1.0877732201149635 15.259599516085165 0 0 0
300 2 3.783493370484523 4.162174723920265 15.287336573990482 0 0 0
233 2 13.524052003864051 3.429614954798642 15.28492745870673 0 0 0
231 2 2.150819957612242 7.3667068076986615 15.300704369115342 0 0 0
261 2 10.794674116546433 8.992562091071203 18.17418199822586 0 0 0
262 2 13.752482770684193 12.436842606199964 18.249036903010683 0 0 0
264 2 9.930869898475837 4.197851523706788 18.44463904122233 0 0 0
237 2 4.834324139898933 9.066756024400181 18.25915690776621 0 0 0
238 2 9.259675734890058 11.346566174006151 19.219263679332613 0 0 0
265 2 13.580714098950084 2.70513192467839 17.768094291430515 0 0 0
266 1 0.3431970348205588 4.948071057995041 17.41420511841414 0 0 0
285 1 2.2057672833867414 7.166251586652893 16.936686923688704 0 0 0
240 1 9.541802129639198 12.688098421111738 18.313982095594024 0 0 0
241 2 14.010680710495585 7.414460986712816 17.385241471872675 0 0 0
242 1 8.81519303211406 5.237067559408331 17.78959224438082 0 0 0
267 2 3.3960343134238307 6.075278242484603 17.157636505859365 0 0 0
268 1 3.2540953846887564 4.457829263314658 16.732962073445243 0 0 0
269 2 9.145018531737218 14.109990686455767 19.100148595164903 0 0 0
270 1 14.180330747201225 11.463503104672546 19.477978093662088 0 0 0
244 1 8.216278187039974 0.5002505366960419 19.24917369447907 0 0 0
309 2 12.59753623632621 7.80136754994869 19.639957845678087 0 0 0
246 2 6.551544986964157 7.518050762638327 19.495387759839502 0 0 0
247 2 4.210125023920763 3.7493557923991574 17.86372210783238 0 0 0
248 1 5.081923009802438 10.485371700507002 17.390652088670976 0 0 0
271 2 5.805705809822785 11.437738844258707 18.533691703709163 0 0 0
272 2 7.596462628502551 5.129386264521037 18.80853756866636 0 0 0
249 2 13.76716011066289 5.425817604369577 19.03077348410609 0 0 0
250 2 11.672441974373527 6.464976302401221 17.544888741928183 0 0 0
251 2 13.010170157964636 10.333113318095739 19.300349125054172 0 0 0
252 1 10.134411062189193 2.630157523538086 18.170881071906965 0 0 0
253 1 13.039960435833779 2.0663340710697717 19.162508923331174 0 0 0
254 1 1.6673189047354218 9.51062734748292 18.73874931229522 0 0 0
273 2 11.39221577080676 2.1315289061493554 19.083553825657063 0 0 0
263 2 10.369801805412362 2.461884557128884 16.56608162838687 0 0 0
256 1 12.594373399590648 13.247319028253225 17.526176612311268 0 0 0
257 2 12.933992763182887 14.827885761590963 17.811214291540296 0 0 0
259 2 8.789991429089717 1.703910664744619 18.31609049893548 0 0 0
260 2 2.3073644438020415 8.694938296135131 17.53048539969936 0 0 0
281 2 13.667588241223363 0.5293429000697536 19.188825503444598 0 0 0
282 1 10.611592183500703 7.657066264969371 17.232322230360765 0 0 0
286 1 5.328657144803887 8.545883962532569 19.77463687749147 0 0 0
276 2 9.23497523112049 6.845199069056824 17.350421360069454 0 0 0
283 2 11.122437544648779 12.918708004611005 18.14307104174849 0 0 0
308 2 5.38982954835669 5.2001219923286275 19.608773129373464 0 0 0
255 2 0.7554997487865238 6.515619834454947 17.40525014851384 0 0 0
278 1 13.00775161519088 6.721042439882801 18.467131604954336 0 0 0
280 2 2.9191692457374017 13.567694386867817 19.135438497104886 0 0 0
245 2 1.6200564005115352 0.3703436070775271 18.57351305575766 0 0 0
277 2 2.486619785659257 10.915809969468375 18.86618422749764 0 0 0
275 1 4.76604624732824 3.7367210765651855 19.431326899158496 0 0 0
279 2 5.679013264458822 2.3877805156690375 19.665173020336514 0 0 0
307 2 8.676191042201987 12.544316616772171 16.88766163806055 0 0 0
274 1 11.837722935591154 9.282620117947427 19.441603076196525 0 0 0
243 2 1.614655522741049 4.053760204510109 16.7751694783045 0 0 0
234 1 11.371817216416071 9.81548814746157 15.345286463968556 0 0 0
291 2 0.17826347279073945 4.36018739303805 18.892482419614076 0 0 0
290 2 8.308997133643228 1.270949576890646 15.393527506393983 0 0 0
239 2 0.14805490943015498 9.791195194745132 18.256628277717475 0 0 0
312 1 9.372045026070921 12.200963318706863 15.403977151335665 0 0 0
304 2 8.431600460747221 4.578818862461297 16.326224507331194 0 0 0
296 2 3.3810436784713236 0.4426437841423291 16.4076031267981 0 0 0
306 2 6.111397726815087 10.064493037251621 16.16154403488863 0 0 0
302 2 3.8505865592973803 11.251170340400803 16.572861389151907 0 0 0
303 1 0.3477557247766541 13.650801451355653 16.056336849774755 0 0 0
289 2 10.703268703164518 8.375122511296851 15.733402227762552 0 0 0
297 2 12.62589920495782 12.926802061715867 15.930477746221422 0 0 0
292 1 13.969669286591731 2.2057828557032155 16.272508377677802 0 0 0
293 2 3.6735293465622805 13.993966615806483 16.030016158425504 0 0 0
295 2 12.843485105159099 10.079015809480694 16.033853960331538 0 0 0
298 2 13.196137325148634 0.8492184151945184 15.929752723650251 0 0 0
305 1 14.25298209466288 7.172188153278254 15.748474775774824 0 0 0
294 2 1.507496356928612 12.479145923842628 16.255892176914987 0 0 0
299 1 3.0924504702682976 12.447205403868068 15.772317585610116 0 0 0
301 2 10.377563653429137 10.976834295557406 15.752886539465946 0 0 0
284 5 2.2481914791567243 6.181649233453746 19.626233816249016 0 0 0
354 1 0.5977324814167213 12.542090197646317 22.273960679055342 0 0 0
314 1 2.2803394166847 10.464217229058097 23.717827808935137 0 0 0
315 1 10.071363750759222 7.813159401126061 24.29286043861439 0 0 0
316 2 1.7248243607141802 5.01719138412901 23.824445843547565 0 0 0
317 2 9.884094472354299 13.790869505027246 23.70499673850366 0 0 0
318 5 10.602297366982382 1.1266781092276867 23.616909599518948 0 0 0
319 1 12.031224972957036 4.997861205127106 22.60982625820283 0 0 0
320 2 11.653982869332825 7.881889171931712 23.935893874861193 0 0 0
339 2 14.909544682719742 11.076903931475922 23.970474431746975 0 0 0
322 2 14.021840573593439 14.073695546329784 22.894233381412025 0 0 0
323 2 0.8915676247755724 13.949313828580639 22.966165978228986 0 0 0
324 1 14.064727932025246 9.821292071217906 23.371308734636298 0 0 0
325 2 2.7354546817193355 2.6791217019719253 22.923073716165828 0 0 0
326 2 9.258475190501155 6.683969699144038 23.42621289498184 0 0 0
327 2 6.770141655036737 8.976856936350151 23.42265490042267 0 0 0
328 1 8.10038002863155 9.87754982752478 23.199783230040893 0 0 0
329 5 5.616601973643184 14.252140328648721 22.364339686753397 0 0 0
330 1 7.448984900419162 3.400642176919774 23.244773151026976 0 0 0
331 2 0.932722960186988 11.269697818055313 23.213110993114682 0 0 0
343 5 12.659872257522066 10.32894092879371 22.87575704428425 0 0 0
333 2 12.410999046325802 5.575590429740561 24.032190635860708 0 0 0
334 2 7.936749213899868 11.381568994638382 23.64104346610124 0 0 0
332 2 6.29912158697857 2.746989384578977 22.303403673729377 0 0 0
336 2 9.379851954320005 9.211636053807498 23.966908879628935 0 0 0
337 1 0.9509641284787027 5.863112177005471 22.664600318735367 0 0 0
346 2 8.264487291056701 2.1419691349743064 23.979903733002757 0 0 0
454 2 6.68986295559182 13.678901831282456 24.332537663992643 0 0 0
344 2 6.783022351222354 4.3371852379609495 24.42232859131429 0 0 0
341 1 2.6860784502702972 3.756783166540249 24.134466391063278 0 0 0
345 1 13.02450461657339 14.6223483783298 24.186021787062703 0 0 0
423 2 5.041960495394832 11.93260962976274 24.04247096097801 0 0 0
347 5 4.967926830136382 7.23478216109134 23.797248760483573 0 0 0
348 5 3.2639230840950804 10.122903192025838 22.525361512814385 0 0 0
382 2 2.1270637722254824 6.873783410982477 22.08566079404042 0 0 0
384 2 8.542298802345337 4.317085606515405 22.559118686515518 0 0 0
313 5 11.779439325713994 3.4082184239800895 22.674312043100723 0 0 0
431 5 3.583378125658657 13.340089685848664 22.93156793379807 0 0 0
425 1 5.037032940084605 13.561288584644407 23.661650620875157 0 0 0
340 2 14.028354724201385 8.459857831648074 24.240861502149585 0 0 0
353 1 13.424551562673228 13.489167900367754 21.525765479709996 0 0 0
369 5 6.338500937383682 5.926170788098975 21.596029203139157 0 0 0
373 2 9.637622210459893 14.9471955032483 21.448265759175698 0 0 0
374 2 6.858603148653646 12.340962003472287 20.83322062514533 0 0 0
377 2 11.825451476559511 13.259438754808727 21.823351530242935 0 0 0
367 2 10.79605296782375 9.774260101117818 20.65094567305661 0 0 0
310 1 6.884285363365292 5.977312040940451 20.067900440971258 0 0 0
378 1 10.253083791032212 13.553530238175727 22.216883709871247 0 0 0
351 2 8.446450843438095 9.94547300688569 21.580034266453435 0 0 0
356 1 14.134123038508982 4.599666411412129 20.445925063129682 0 0 0
357 2 3.4414807288802707 3.7326870084730555 20.506759605964415 0 0 0
381 1 9.196574649750952 5.701590239104287 22.101531626687617 0 0 0
383 1 1.0066262497510603 0.626220685869609 20.066595892731666 0 0 0
380 2 13.67745285269104 3.045881575681355 20.26227280421429 0 0 0
372 2 8.492694420864119 6.379687035183988 20.84197912449046 0 0 0
371 1 2.628898009619444 7.41174054621252 20.621222245863933 0 0 0
370 2 5.697362670036543 9.83442636633652 20.63896750021435 0 0 0
364 2 4.219613146517055 7.701373396109934 20.654423409225306 0 0 0
363 2 4.183241964740902 11.997991504888208 20.5669400357396 0 0 0
355 2 1.4862233133879856 12.342302074597056 20.920849714701895 0 0 0
361 2 14.085438829288563 12.090835359924409 21.00111652850525 0 0 0
352 1 3.09014887735299 2.408481532299379 21.385225363082014 0 0 0
349 2 13.77634807813357 14.616003538691565 20.374655518855555 0 0 0
365 2 13.270673922577904 5.247171723582011 21.627143190508963 0 0 0
359 2 9.751996681244782 12.138055391179543 21.663400011042704 0 0 0
360 2 1.6680166359232165 1.9211133898665862 20.753712363730152 0 0 0
368 2 4.324661902599969 1.3390504119488114 21.325587468169175 0 0 0
362 2 7.717635826592852 1.2013252583267726 20.607079036824146 0 0 0
358 1 6.062234162560653 1.5644107656097745 21.1767449557422 0 0 0
366 1 9.527186673287972 10.78894333609315 20.772380222906534 0 0 0
375 2 10.768653241796768 5.516540443565393 21.78417289457481 0 0 0
311 2 1.6786930329061929 8.710202537803271 20.119778167012875 0 0 0
379 5 14.75772228760254 9.53390726221006 21.934550290989016 0 0 0
387 1 5.67775848931754 11.431900905929163 20.20103855640775 0 0 0
376 2 0.43169756974062234 4.849332796311022 21.47297788552586 0 0 0
350 5 1.742743468029592 8.987957222387305 24.158853296282132 0 0 0
288 1 2.7264596956466374 12.144071094054862 19.929682673192374 0 0 0
321 1 5.851807619138167 8.340273383003922 24.55011558374117 0 0 0
944 5 6.156196701992207 0.04899157192972187 22.004603957307967 0 1 0
335 2 4.134880833965748 4.390776046515073 24.45566584062709 0 0 0
429 1 10.70908665123615 0.3797275230948814 29.47387348299863 0 0 0
1019 5 3.212400362988767 3.870164776697103 29.778666704481765 0 1 0
389 2 0.899163949979833 11.869964143955803 28.03978475169257 0 0 0
404 5 8.306753150449422 11.52148132075553 28.588886714406453 0 0 0
421 2 5.768838864169613 3.3743563688193374 29.47884969804266 0 0 0
1033 5 3.97862437682811 1.4375830948125994 29.09869576407747 0 1 0
394 1 11.446852487068268 3.2071333592105082 29.098399670927854 0 0 0
395 1 12.233618572379628 13.495966561431908 29.794303847759767 0 0 0
437 2 10.57974460689611 10.170728685081748 28.140586663769383 0 0 0
403 1 9.026823913922726 10.115263320756476 28.597688902643416 0 0 0
442 2 0.644948034741645 11.026089239545648 30.480431660821722 0 0 0
436 5 5.717065587492249 8.002147067424906 27.992782080862096 0 0 0
396 2 10.494778709131902 4.581597279444148 29.32019399632987 0 0 0
392 5 5.5158175349351035 11.326100143779707 29.28620373850867 0 0 0
1032 1 4.293027495133168 2.7931722840139703 29.97325368621534 0 1 0
409 5 12.012148464624516 14.981459925244426 29.375037161128798 0 0 0
420 1 4.3410491561458056 12.049950452349268 28.483569418383798 0 0 0
418 1 10.855750929234485 6.159676554323021 29.770726033823514 0 0 0
397 2 11.641750663384883 12.585086867430174 28.564949313536843 0 0 0
399 5 4.952393048884324 13.531862983802997 28.22724908435248 0 0 0
400 2 0.8368675487270796 13.648590773707816 29.99857833190879 0 0 0
401 5 12.831337726392368 3.3741888383770307 29.83635980425163 0 0 0
469 1 11.515211573971596 11.388233417532856 27.43554831715847 0 0 0
444 5 6.776543067504167 1.1898632360078607 28.899129998310347 0 0 0
405 2 8.908865253444457 9.661289193270354 30.129962144999432 0 0 0
415 2 10.585267121924684 2.020185332781808 29.851822600138856 0 0 0
391 5 0.45408003544180187 8.612025805030434 28.27931105926873 0 0 0
414 5 12.355717018278229 6.323502827486597 30.315146178250497 0 0 0
1030 5 4.457204974998577 14.577302865565217 24.762762121412297 0 0 0
410 1 1.3904796969321893 12.128480571500608 29.608387679257557 0 0 0
412 2 3.0100313636191394 12.011491806186033 29.523711591895495 0 0 0
413 1 7.193834704139086 2.5706491450543183 29.383901375978873 0 0 0
441 2 8.074210238986339 9.211119189002854 27.635510039443233 0 0 0
438 5 8.075214508611722 3.2224194660050496 28.230532566478423 0 0 0
417 5 13.705386332954948 13.072772197052778 30.05760789153822 0 0 0
388 2 10.8840647068133 7.108096940949256 28.444997986558167 0 0 0
435 5 1.8455812641332716 1.7214237957265621 27.776064518327363 0 0 0
467 2 0.4358179507812075 3.8061112391217993 27.12200616467334 0 0 0
473 2 0.25206898119036325 10.885889067334746 25.671803342399457 0 0 0
465 2 11.079084117083228 5.225351607101009 26.60406674138251 0 0 0
457 2 6.438495863685463 11.433193247051125 25.979631228502996 0 0 0
386 2 11.989795300575201 13.530350081169193 24.68340238823015 0 0 0
385 1 13.092377053225068 7.083858225844114 24.65966224057539 0 0 0
455 1 5.503512428681261 4.215643986703946 25.36146428400137 0 0 0
342 2 3.023038860347314 11.078656761019397 24.961788224142875 0 0 0
402 2 14.121083128399627 14.881576624622971 25.454040608870738 0 0 0
450 1 4.710219538707349 11.060337433252363 25.44641744492137 0 0 0
432 2 4.885824266613247 9.418683484569653 25.277040621327078 0 0 0
453 2 13.200178572730028 3.6006289289313997 25.44597401175564 0 0 0
464 5 5.441456832607034 5.279953546018527 26.603959029757927 0 0 0
470 2 4.158919661779849 11.316561565601209 27.063327953469408 0 0 0
449 2 9.897654039381575 7.311755009119723 25.84864756489419 0 0 0