# Converted from POSCAR to lammps format

2 atoms
5 atom types

0.000000  10.000000000000   xlo xhi
0.000000  10.000000000000   ylo yhi
0.000000  10.000000000000   zlo zhi

0.000000000000  0.000000000000  0.000000000000   xy xz yz

Atoms

   1  3     4.328403000000 5.000000000000 5.000000000000
   2  5     5.671597000000 5.000000000000 5.000000000000
