ITEM: TIME
0
ITEM: TIMESTEP
0
ITEM: NUMBER OF ATOMS
2
ITEM: BOX BOUNDS xy xz yz ff ff ff
0.0000000000000000e+00 1.0000000000000000e+01 0.0000000000000000e+00
0.0000000000000000e+00 1.0000000000000000e+01 0.0000000000000000e+00
0.0000000000000000e+00 1.0000000000000000e+01 0.0000000000000000e+00
ITEM: ATOMS id element xu yu zu vx vy vz fx fy fz
1 C 4.328403000000000 5.000000000000000 5.000000000000000 0.000 0.000 0.000 5.402 0.000 0.000
2 F 5.671597000000000 5.000000000000000 5.000000000000000 0.000 0.000 0.000 -5.402 0.000 0.000
ITEM: TIME
0.001
ITEM: TIMESTEP
1
ITEM: NUMBER OF ATOMS
2
ITEM: BOX BOUNDS xy xz yz ff ff ff
0.0000000000000000e+00 1.0000000000000000e+01 0.0000000000000000e+00
0.0000000000000000e+00 1.0000000000000000e+01 0.0000000000000000e+00
0.0000000000000000e+00 1.0000000000000000e+01 0.0000000000000000e+00
ITEM: ATOMS id element xu yu zu vx vy vz fx fy fz
1 C 4.377261810683254 5.000000000000000 5.000000000000000 0.000 0.000 0.000 1.266 0.000 0.000
2 F 5.622738189316746 5.000000000000000 5.000000000000000 0.000 0.000 0.000 -1.266 0.000 0.000
ITEM: TIME
0.002
ITEM: TIMESTEP
2
ITEM: NUMBER OF ATOMS
2
ITEM: BOX BOUNDS xy xz yz ff ff ff
0.0000000000000000e+00 1.0000000000000000e+01 0.0000000000000000e+00
0.0000000000000000e+00 1.0000000000000000e+01 0.0000000000000000e+00
0.0000000000000000e+00 1.0000000000000000e+01 0.0000000000000000e+00
ITEM: ATOMS id element xu yu zu vx vy vz fx fy fz
1 C 4.382431488266432 5.000000000000000 5.000000000000000 0.000 0.000 0.000 0.750 0.000 0.000
2 F 5.617568511733568 5.000000000000000 5.000000000000000 0.000 0.000 0.000 -0.750 0.000 0.000
ITEM: TIME
0.003
ITEM: TIMESTEP
3
ITEM: NUMBER OF ATOMS
2
ITEM: BOX BOUNDS xy xz yz ff ff ff
0.0000000000000000e+00 1.0000000000000000e+01 0.0000000000000000e+00
0.0000000000000000e+00 1.0000000000000000e+01 0.0000000000000000e+00
0.0000000000000000e+00 1.0000000000000000e+01 0.0000000000000000e+00
ITEM: ATOMS id element xu yu zu vx vy vz fx fy fz
1 C 4.385237915905118 5.000000000000000 5.000000000000000 0.000 0.000 0.000 0.465 0.000 0.000
2 F 5.614762084094882 5.000000000000000 5.000000000000000 0.000 0.000 0.000 -0.465 0.000 0.000
ITEM: TIME
0.004
ITEM: TIMESTEP
4
ITEM: NUMBER OF ATOMS
2
ITEM: BOX BOUNDS xy xz yz ff ff ff
0.0000000000000000e+00 1.0000000000000000e+01 0.0000000000000000e+00
0.0000000000000000e+00 1.0000000000000000e+01 0.0000000000000000e+00
0.0000000000000000e+00 1.0000000000000000e+01 0.0000000000000000e+00
ITEM: ATOMS id element xu yu zu vx vy vz fx fy fz
1 C 4.386897861871190 5.000000000000000 5.000000000000000 0.000 0.000 0.000 0.293 0.000 0.000
2 F 5.613102138128810 5.000000000000000 5.000000000000000 0.000 0.000 0.000 -0.293 0.000 0.000
ITEM: TIME
0.005
ITEM: TIMESTEP
5
ITEM: NUMBER OF ATOMS
2
ITEM: BOX BOUNDS xy xz yz ff ff ff
0.0000000000000000e+00 1.0000000000000000e+01 0.0000000000000000e+00
0.0000000000000000e+00 1.0000000000000000e+01 0.0000000000000000e+00
0.0000000000000000e+00 1.0000000000000000e+01 0.0000000000000000e+00
ITEM: ATOMS id element xu yu zu vx vy vz fx fy fz
1 C 4.387917196961406 5.000000000000000 5.000000000000000 0.000 0.000 0.000 0.187 0.000 0.000
2 F 5.612082803038594 5.000000000000000 5.000000000000000 0.000 0.000 0.000 -0.187 0.000 0.000
ITEM: TIME
0.006
ITEM: TIMESTEP
6
ITEM: NUMBER OF ATOMS
2
ITEM: BOX BOUNDS xy xz yz ff ff ff
0.0000000000000000e+00 1.0000000000000000e+01 0.0000000000000000e+00
0.0000000000000000e+00 1.0000000000000000e+01 0.0000000000000000e+00
0.0000000000000000e+00 1.0000000000000000e+01 0.0000000000000000e+00
ITEM: ATOMS id element xu yu zu vx vy vz fx fy fz
1 C 4.388555545699250 5.000000000000000 5.000000000000000 0.000 0.000 0.000 0.119 0.000 0.000
2 F 5.611444454300750 5.000000000000000 5.000000000000000 0.000 0.000 0.000 -0.119 0.000 0.000
ITEM: TIME
0.007
ITEM: TIMESTEP
7
ITEM: NUMBER OF ATOMS
2
ITEM: BOX BOUNDS xy xz yz ff ff ff
0.0000000000000000e+00 1.0000000000000000e+01 0.0000000000000000e+00
0.0000000000000000e+00 1.0000000000000000e+01 0.0000000000000000e+00
0.0000000000000000e+00 1.0000000000000000e+01 0.0000000000000000e+00
ITEM: ATOMS id element xu yu zu vx vy vz fx fy fz
1 C 4.388959668848019 5.000000000000000 5.000000000000000 0.000 0.000 0.000 0.076 0.000 0.000
2 F 5.611040331151981 5.000000000000000 5.000000000000000 0.000 0.000 0.000 -0.076 0.000 0.000
ITEM: TIME
0.008
ITEM: TIMESTEP
8
ITEM: NUMBER OF ATOMS
2
ITEM: BOX BOUNDS xy xz yz ff ff ff
0.0000000000000000e+00 1.0000000000000000e+01 0.0000000000000000e+00
0.0000000000000000e+00 1.0000000000000000e+01 0.0000000000000000e+00
0.0000000000000000e+00 1.0000000000000000e+01 0.0000000000000000e+00
ITEM: ATOMS id element xu yu zu vx vy vz fx fy fz
1 C 4.389293642937544 5.000000000000000 5.000000000000000 0.000 0.000 0.000 0.041 0.000 0.000
2 F 5.610706357062456 5.000000000000000 5.000000000000000 0.000 0.000 0.000 -0.041 0.000 0.000
ITEM: TIME
0.009000000000000001
ITEM: TIMESTEP
9
ITEM: NUMBER OF ATOMS
2
ITEM: BOX BOUNDS xy xz yz ff ff ff
0.0000000000000000e+00 1.0000000000000000e+01 0.0000000000000000e+00
0.0000000000000000e+00 1.0000000000000000e+01 0.0000000000000000e+00
0.0000000000000000e+00 1.0000000000000000e+01 0.0000000000000000e+00
ITEM: ATOMS id element xu yu zu vx vy vz fx fy fz
1 C 4.389569598423896 5.000000000000000 5.000000000000000 0.000 0.000 0.000 0.012 0.000 0.000
2 F 5.610430401576104 5.000000000000000 5.000000000000000 0.000 0.000 0.000 -0.012 0.000 0.000
ITEM: TIME
0.01
ITEM: TIMESTEP
10
ITEM: NUMBER OF ATOMS
2
ITEM: BOX BOUNDS xy xz yz ff ff ff
0.0000000000000000e+00 1.0000000000000000e+01 0.0000000000000000e+00
0.0000000000000000e+00 1.0000000000000000e+01 0.0000000000000000e+00
0.0000000000000000e+00 1.0000000000000000e+01 0.0000000000000000e+00
ITEM: ATOMS id element xu yu zu vx vy vz fx fy fz
1 C 4.389670346089837 5.000000000000000 5.000000000000000 0.000 0.000 0.000 0.001 0.000 0.000
2 F 5.610329653910163 5.000000000000000 5.000000000000000 0.000 0.000 0.000 -0.001 0.000 0.000
