(written by ASE)

1828 atoms
5 atom types

0.0                      20  xlo xhi
0.0                      20  ylo yhi
0.0                     120  zlo zhi

Atoms # atomic

     1   3      1.8242364098601818      1.3564450846271623      13.114278178059324
     2   3      2.2230497915612113      7.1646174663100393      13.125156205511196
     3   3      2.6463862042263404      5.7598821843808299      13.402477874151145
     4   3      1.7458557811282693      8.1440287580151747      13.946150479108761
     5   3      9.1486687208262705      3.5515714619630478      13.330346782211272
     6   3      2.3283482925639518      5.0082587096785343      14.436852428970322
     7   3       1.049490669562539      9.0254904536916456      14.575088341691961
     8   3     0.38080122259321503      9.4534434880117679      15.751993756091769
     9   3      1.9164478211843294      4.3028736810787596      15.462025241912587
    10   3      8.3648744802154003      8.8495744161918921      16.859866937770256
    11   3      1.2430515874739303      3.1573037667104842       16.11214469156679
    12   3      7.1390943190316536      2.7997373526043927      16.346649106491643
    13   3      2.1631785105830943      3.9667735521487257      16.843035369607129
    14   3      4.2625341760002877     0.49434646020144279      20.794619945492073
    15   3      6.5466644345580001       2.527883154471013       21.60211761362115
    16   3      3.0044937077734994      6.3104027509567135      20.951153232230034
    17   3      9.1870808685529894      9.0467424314561082      22.560930871166505
    18   3      5.5571399648224107      8.6948271078450912      21.255255049912314
    19   3      2.9709489957763724      7.7919679157952979      21.540594774801431
    20   3      6.1668994605330418      5.1010166830622774      17.824959920587297
    21   3      6.9035209386955421      5.0201610893048354      21.547680547247104
    22   3      2.0158112305694744      9.5538139930280845      20.162124502187385
    23   3      6.9509546788115495      8.7570182449943932      21.104465554578567
    24   3      5.2964595534876748     0.96927497066771939      23.107502204978505
    25   3      0.9911950069839458      9.0841133144999873      21.002378232661776
    26   3      1.3011207732205285       1.373850464188028      19.443990804550687
    27   3      2.5036967827535768      3.5254137213438597      20.458573204331444
    28   3      3.0228662394095607      1.0290607535563912      20.423658924426665
    29   3      2.9175464723567486      5.8386923620683309      19.558289836464922
    30   3      7.4162713578271644      5.9367873316720843      20.768744662855354
    31   3       7.226206300814396      1.5540805007475778      20.809048164747974
    32   3      3.2530518863020652      8.8689117391276806      20.564609546262218
    33   3      7.5012143150589683      2.0154590685584886      19.516633522166238
    34   3      7.7112443317811286      8.9372361448612754      19.908829036259107
    35   3      8.1072902065442261      6.5044749257525911       19.79863902158295
    36   3      6.7755552359555251      3.7357503821986815      20.898755757538073
    37   3      8.2134615427087336      7.8510562450380617      19.228818835061347
    38   3      7.2228685569232498      3.4091654736203281      19.506616724808254
    39   3      2.7179199674194661        6.70267352909769      18.511589230431714
    40   3       2.801549491415996      4.4242278588646293      19.301805320962735
    41   3      2.8292767015681637      3.8107223542810842      17.996787323331596
    42   3      4.6266437399096292      8.8449523322195667      20.200777424814028
    43   3      7.1423248592725894      4.0216098548226045      18.217451441332244
    44   3      2.1684756028745222      2.1973590925231514      20.319950207633951
    45   3      8.8625037162090337      7.9700514722233118      17.926890524214855
    46   3      2.2402904473160907     0.36259382251991545      19.387640441716229
    47   3      7.9894505252623924      7.4398048865363142      23.107082984955273
    48   3       8.104588233419614     0.96494493141530013      18.801554152739648
    49   3      7.8827851660299784      8.5531749316291865      22.148861899015142
    50   3       2.714623613819644      5.4199551823222416      21.894077190337981
    51   3      1.9479073869266754      4.0655545996354663      23.086000805611668
    52   3      6.7121567704112461      5.2584311859453567      22.951974773573742
    53   3      3.8680127416802321       7.914324108899522      22.828999820093273
    54   3      5.8304317788291362      2.2062397633417765      22.803955625750827
    55   3     0.80855797774356031      7.4488516075714024      22.776548211564567
    56   3      4.7683893737450394     0.10570803704825238      22.117419073470938
    57   3      4.9672750921684328      8.7239115991453744        22.5667796538674
    58   3      7.7030951205361697     0.23775514980178158      20.897081604699949
    59   3      2.5592268775750067      4.0448189715788043      21.777703779569705
    60   3      1.5436251470161437      8.1119275914950517      21.786930330514764
    61   3      7.9011691884129984      3.5081751791608928      17.192676951109473
    62   3      1.7583466103221723     0.31054322047183619      25.635192916201273
    63   3      7.5668090353545292      2.5883940216553443      27.216459316180693
    64   3      5.3956883346058317     0.35082000884449371       24.44286632964166
    65   3     0.58798214150640626      2.5307509868425959      26.480569834555279
    66   3      2.4809493410286012      7.0897743738836185      28.257557394064474
    67   3      9.1746804530977109      8.0057879492310153      23.530003194925385
    68   3      6.0050604802272245      4.4235274018158677      23.850327202325911
    69   3      1.6539158327506909      2.8761394108780243      27.474221098146355
    70   3      1.9637878922309451      7.6139414693421958      26.003602754160312
    71   3      1.5109462561308455      6.5398608276282264      23.716805114910404
    72   3     0.66235404867813008      7.9078431599169896      26.399321860513616
    73   3      5.3630316987312305      9.6386866097485679       23.59121040652126
    74   3     0.65605978796776865      1.3425041022489406      25.870731863295163
    75   3      9.5143744085884236      2.3447467844968592      25.611782129604943
    76   3       5.599836033313272      8.9047216368700628      24.797011225877867
    77   3      6.5859746265363039      9.8092623019723391      26.818347675089111
    78   3      4.5675722523723792      8.1179406395981992      25.266302458839231
    79   3      8.1850141686921454      5.9502137349612374      24.874154690496013
    80   3      5.3246645089099287      4.7908688365253651       25.01590473450522
    81   3       6.111177668509975      1.0622055433818884      25.358022877034092
    82   3      9.1857987641180454      6.5477639129988408      25.476577871145835
    83   3      7.1069237267385121      2.1012742323819946       24.85512881819449
    84   3       8.107358139525692      2.5357532259657631      25.816489429568058
    85   3      4.2483717721138863      7.9663506933112913      26.661103127429392
    86   3      2.3012132727238188      7.2625811945703322      24.677146244470805
    87   3      3.5683397017748431      7.7037611342585199       24.23502167020753
    88   3      2.9219807861184419      7.5394664231246455        27.0139450761828
    89   3      8.1845099409776161      3.3526918984436627      28.164635120305771
    90   3      6.2546492096694228      3.0217068380169287       23.86075230313827
    91   3      6.7255304873729411      9.4112817352308156      25.498250407759414
    92   3     0.17485194354868144      7.4454807244039545      27.620485132551106
    93   3      7.5207645546962354      6.2484253621125152      23.653423910327962
    94   3      9.7470836861958325      7.7353843851405735      24.758943246661115
    95   3      5.7045003482002068     0.96931018731339369      26.738596424242779
    96   3      5.1506226609479757      8.0317587654100961      27.786818474990408
    97   3      9.1391216555131916      4.3679316117019411      27.885787295215746
    98   3      6.1915749795899044      8.9773444647405292      27.878524291139186
    99   3      6.4293456953223904      1.8812426489427514      27.460133068060635
   100   3      9.9509154698281712      4.6207441893671097      26.813898222622889
   101   3      2.1107451514865088      5.4066197685628161      23.241879243996522
   102   3      4.3627724221325774     0.94553272192120508      31.518285119933971
   103   3      9.2663715537930464      3.4596967454708061      29.021298775999774
   104   3      1.2866781097852868      2.6409770678079063      32.508022273286883
   105   3      8.3356801923690824      3.5787041749104702      31.965783916477424
   106   3      3.9128788339523357      5.5435449616696726      29.936773224170619
   107   3      3.1937311649879763      7.7723906426884737      31.800016164680812
   108   3      7.9126633193732605      2.1807186134019569      31.593605758373769
   109   3      1.5111901836189778      8.2586664997129553       29.93302078083028
   110   3      2.7166768883829895      7.6906896417847248      30.478244409508179
   111   3      5.7940920802542974     0.89341896211666327      31.654346844004721
   112   3      5.6652949393229548      7.0764246970150957      30.031969755635807
   113   3      3.4479047880207903      6.8609935119213947      29.361393333005065
   114   3      1.2052483876155731      7.5198157763126439      28.695078709997411
   115   3      2.5341159324545459      2.8622552177888276      31.889874180518959
   116   3      6.9773710639457187      7.4729122913142207      30.149892822189987
   117   3      4.8272207516285119      7.4324833418158898      29.003546284467799
   118   3      9.5240835331026972      4.2561439029816874      32.313671977774916
   119   3       5.163469581229613      4.8068238537931682      33.151668751961076
   120   3      6.5394761188756121      1.8580558322003227      32.158855430067192
   121   3      3.3875272892656239      4.3100066583855856       29.97970574531865
   122   3      5.1337114973377354      5.7874143623676257      30.657202178161963
   123   3      6.4164850282327635      2.5308139390687008      33.473477266216747
   124   3      4.8469093251582702      5.8327161406167729      32.151607067104393
   125   3      2.5676357788286164      3.9465918822660493      31.023491904545498
   126   3      6.8887006127040218      9.5554577720640737      29.046290912740837
   127   3      7.2212492316200949      8.8306801524071883       30.15630104306236
   128   3      2.5128565283552136      8.8210085591053815      32.776746263555545
   129   3     0.94664489406949492      9.4450968843856469       30.52071557614217
   130   3      3.6019470657502266      1.9132965210647657      32.364684775589893
   131   3      7.5865629794183143      4.3828391233121833      32.901583111411142
   132   3      3.6886245291129161      6.6039251633749609      32.455374386276588
   133   3      6.2607145754817495      3.9664525870026845      33.261998362257785
   134   3      2.8115613994407602      4.9426738333752684      33.821455140622994
   135   3     0.60843108007533109      3.5144036811662693      33.519234602958122
   136   3     0.54116443617802901      1.4374681264631126      31.979389142372973
   137   3      3.0577971535409731      6.3384897335566759      33.682088046305836
   138   3      3.5761573479853253      1.5638075615743152       33.69708189938472
   139   3      8.8366523149745984      4.8825054387157794      33.428500176331468
   140   3      4.1370139452704784       4.461460955211372      34.069208564952284
   141   3       9.466912158784158      8.6394842891887773       34.24063458327214
   142   3       3.674060512013777      0.1646086911974507      34.034924096817981
   143   3      3.1078295411032903      8.6187688750869818      34.201779652278759
   144   3      1.6169164384248258      4.4011674630236683      34.270128088519655
   145   3      3.5028029489895069    0.088905622286002739       35.46910870254051
   146   3      1.3286554708225315      4.8211834775755325      35.649394108174192
   147   3      8.6138821292947227      7.1814446916517678      39.280629636999038
   148   3      3.6192067874220406      9.7160239477835972      34.664305951969723
   149   3      3.0654084069100129      4.0402350671170737      38.924352905796702
   150   3      8.5182324296364307      4.9982405484601884      38.059990646918344
   151   3      9.4950438081342412      8.9732045955685464       37.90692370321463
   152   3      8.9465816906659494      6.8558887241863653      36.837289096516045
   153   3      3.7834973748141132      2.0261133749394684      37.390405463877386
   154   3      3.5715519804458111      3.4150872484111834      37.612319331287125
   155   3      4.0707698796061731      1.2411335990669841      38.601017324583111
   156   3      9.4156048045079324      8.1831958765693322      36.707949260232589
   157   3       8.619428702367232      4.6216426023852577      36.735299662192432
   158   3      8.6987443557321562      6.4368758514116315      38.107551539629469
   159   3      8.2280058382405894      4.3536859719645316      39.243976352652552
   160   3      3.6520836285361846      2.2699025329145885      34.927738874653627
   161   3      4.0436998398630388      3.6462549890689582      35.195353754870489
   162   3      3.0499485745812716      7.2951934965669318      34.762752940901215
   163   3      8.9136076163937048      5.7024361879057208      35.901664306394892
   164   3      6.7472042709892408      1.9918797278327338       34.70764400435985
   165   3      3.5115915618521543      4.2306471957292624      36.454347706474138
   166   3      2.6671401414603055      5.3864254283110498      36.242222908560194
   167   3      6.0837922956230948      9.7213170743444444      36.245372049119226
   168   3       3.009716336946211      6.6685250740256485       36.05603715825778
   169   3      9.3709886645857825      5.5539963110995796      34.481887200246916
   170   3      3.5706341103945576      1.4724175783335671      36.100138627684998
   171   3      9.2847274332722876      8.4669143592852425      39.232616515128313
   172   3      9.9403071259754725      8.7030583075666392      35.539229399036778
   173   3      4.8430887710459913      1.8058963300451258      39.664099822233069
   174   3       8.849639811461433      3.0532750507477422      39.782892437223929
   175   3       7.572607075307106       5.214716845921509      40.078127600258853
   176   3      4.8566274163971945      5.1383468085075981      42.230965904678754
   177   3      3.8969508697853805      4.9894323334020605       41.14180054828028
   178   3     0.98319855895228536      8.6156529847717884      42.927695532371338
   179   3      6.4053463541783628      1.9570901740598279      42.698548703899448
   180   3      4.5591991354393695      4.0696955392666405      43.244816072866179
   181   3      7.8766738321435845      6.5132843187366953      40.377979725234923
   182   3      8.5906796351428181      2.8400883372778263      41.300736697477959
   183   3      5.2529443927521315      1.4586442470829328      45.515827543992536
   184   3      3.3393484000619877      3.0147561525890509      44.954285335453356
   185   3      9.2965241400817167      3.3962907068224899      42.264563510574618
   186   3      3.7877637090617271     0.62002320437670022      43.841843212514235
   187   3      8.3103990319346295      3.6840922227771422      44.957682974739903
   188   3      7.4516901228649122      2.6028787901913759      44.924526383056659
   189   3      7.7311475934623886      5.0499457803078176      45.103631185675191
   190   3      4.3586178718446549      1.9812416462199258      44.306744917921584
   191   3      2.3837240701573799        5.09431020512449      44.390414678223991
   192   3      4.0661721666006905       4.165552486490343      40.020079801023883
   193   3      5.0467011653333156      3.1306195979645284      40.120362742158733
   194   3      9.7680137265939351      3.6073878391551188      44.675061729862989
   195   3      6.2648602411215126      3.3669557523701354       40.74596900190496
   196   3      3.4958760623301743      4.1973205041747184      44.199922956540121
   197   3      7.1406263468017261       2.564937579681219      41.530388623699956
   198   3      7.4598152392773507      1.5541459711784567      43.870855930219363
   199   3      5.1648882377627805      2.8226664890803925       43.39966654463587
   200   3      5.5953938055087074     0.81916713105012084      42.093008904181289
   201   3      6.1994358753676027      5.5597132045518807       41.90788695539478
   202   3      8.1573373336383668      7.2352426169419548      42.773678471752383
   203   3       9.918713102332104      9.0976729427208163      40.247125127894932
   204   3       8.867720343717437      7.1737974054675675      43.921419592732605
   205   3       6.704119121978227      4.6481460102610876      40.995587342375302
   206   3      8.6208399697335878      6.1979095287202135      44.953465612717011
   207   3      7.3749862770613994      6.6821529658484247      41.775451375841932
   208   3      5.1010163527675703     0.85099844134241776      40.712014596822776
   209   3      2.4970490973443242     0.77606233628719679      43.005380796251629
   210   3      1.7702778977851796      4.5088430397058197      45.717198753080304
   211   3      2.2010020952199949       3.167201926056225       45.86232415725668
   212   3      6.3804602299510123       2.306478652578984      45.850488577551332
   213   3      7.2047753609182896      7.8499888632137393      46.655543547748358
   214   3      6.4375005471054259      6.6032484164220424      46.573744415962537
   215   3      4.3415362782440896      6.8867227874063408      50.861244962325209
   216   3     0.16871016464639155       3.423145367669322      49.080685596592303
   217   3      7.1374856050380986      2.5503541097272659      51.426106810174232
   218   3      4.6528253874043859     0.58792253189897681      48.571389211492502
   219   3      4.7609557683047381     0.29682193175830562      45.993755834303869
   220   3      5.8315560962659605      2.8609456555127495      51.182660726689264
   221   3      1.8251645743099023     0.89544962557436492      46.924781526952962
   222   3      1.6739617427295805      2.2455704972133579      46.929885133787607
   223   3      5.5352143019652713      6.4950090008959416      47.702588878030681
   224   3      2.5718610465761627      9.3361352029849378      47.647733706776606
   225   3      2.5935838437829912      8.2910314766462694      46.705080556347134
   226   3      4.7934330928649205      7.9339379699564683      50.181854897596203
   227   3      7.8830764580698096      6.5488055612213314       49.28858769955793
   228   3         6.5594160455171      2.3128642995067654      48.338936563114849
   229   3      8.8452848362355994      6.9997820575544676      48.380882625280059
   230   3      6.9334391272733731      9.2020425759263595       46.95443417522263
   231   3      3.6269892550305811       2.218940421774982      50.655707628898412
   232   3      8.0749353053634838      2.0782053240569653      50.262564985989997
   233   3      7.4236716801252722        5.30469649569313      48.856218276456474
   234   3      5.4110143959469212       1.680789440775736      48.997481260376176
   235   3      3.9095423575868478      7.8769589925105876      46.525095185285444
   236   3      7.8696787285710945      2.5542203981027107      48.826248377525125
   237   3     0.65232622330961743      4.0257396357346007      50.365204583245315
   238   3      2.8813603363426128       1.203827805545409      49.934559655294656
   239   3      8.8234922591883009      3.4060590897826803      48.076033904776693
   240   3      2.7832477528291206      3.2777970778359999       50.20303029335745
   241   3      6.0099804926327547      5.1669406481210274      48.410605235936508
   242   3      4.4652083730723646       7.358184109791023      47.716549710657688
   243   3      4.9957294304930961      2.2261014734202673      50.308471559372308
   244   3      8.5372596595800108      7.4699318881254664      47.012779447265615
   245   3      2.1876310920951205      2.3064150207920644      49.270444395893001
   246   3      1.2109732646268963      2.7063292825524461      48.317273496188392
   247   3      3.3957128172767841      9.2982529930808759      48.716691222712655
   248   3      6.2070143718359985      2.9975482110739611      47.059015281137142
   249   3      2.0004387480074195      4.2678258226745154      50.817683521262353
   250   3      5.1324002504049249      9.1698109955722522        51.0314393606415
   251   3      8.4946669110609552      4.7752456764153077      48.001538479242335
   252   3      6.9914188255804488      9.6611045748886468      48.343698794882847
   253   3      4.2494330375704621      8.2274850289787178       48.87273274186559
   254   3      9.2900861485838799      5.9055190564506983      47.539677647323849
   255   3      6.1925436902196163      4.3682407711738236      47.059303451139357
   256   3      6.4736030975510026      9.5876336079032107      50.950734376006331
   257   3      9.3819230557244246      6.5680396669403551      46.156422996592561
   258   3      6.7238800707364534      5.2804181506391537      46.044564437705681
   259   3      6.8126323631845223      9.9421175808474214      49.668433256030269
   260   3      3.6190062054063192    0.083844439648043334       49.55954894056908
   261   3      1.1892154379274862      1.3032435473567863       59.54773367205118
   262   3      2.1230044930852179      1.7261699427619501      58.499437064774597
   263   3     0.53092462523378847      4.4156255633590549      59.083753214838858
   264   3     0.47110766049452835      3.5537621868406344      58.024760981487447
   265   3      1.7718925413577538      2.9270155015205805      57.737474014178972
   266   3      3.0937594352783613     0.75893586894042708      58.062719726413647
   267   3      1.6123111135511974     0.50283315599170997      60.835641559799889
   268   3       2.217728387365733      4.6250242237757142      52.190608897796508
   269   3      3.7918038823515454      3.5568243068127536      56.376295590486876
   270   3       5.816605235195401     0.80207585626751954      54.951546109015887
   271   3      5.7002046910979365      2.1249779942494751      55.589277793866714
   272   3      6.2668248217268285      3.2193720854302681      54.841519572878866
   273   3      4.6076558223409707      2.3831990032976673      56.526023107927955
   274   3      5.5719714179739865      4.4832858251650354      54.955617201883243
   275   3      2.3941051356018779      3.4137285291824737      56.601813323978661
   276   3       3.866092560810559      1.1929524766524031      56.884050858811229
   277   3       1.883914145838087      4.1373748353554864      54.392036875577261
   278   3     0.63132336425393942      2.1385741814018715      55.216771973399545
   279   3      3.2087726366249192      4.5918176124858849      54.223137921548094
   280   3      7.2146073575752379      3.0933342155778387      53.848924421485101
   281   3     0.93009828113423521     0.72330157924447291      55.082908287543333
   282   3       4.256885755512223      4.4870765143052758      55.290338094422864
   283   3      3.4695568147302041     0.59804543710247793       55.65735718822684
   284   3      1.1950047060415465      4.2213232364609681      53.121682727033829
   285   3      1.6331281571291332       3.233950375428996      55.441484498929611
   286   3      3.2586504546274195      4.9467372032106134       52.92373206181194
   287   3      7.5067840586526788      2.8266000271482405      52.713162054946444
   288   3    0.041115004935047494      3.5980122860603392      52.760815346189418
   289   3      2.1525652748283224     0.11302778537289981      55.492858213853452
   290   3      4.4151828240434279      9.7467087178583931       54.15894340906079
   291   3      3.0163164893548644      19.970862581298352      11.887903636608174
   292   3      7.1242956767777095      12.227837552331417      12.719934742096559
   293   3      7.2386055793386861      12.370745644777958      14.105627554841742
   294   3      7.0987705344330543      11.234625427725941      14.908580010008551
   295   3      7.5086424422899656      13.684607970512864       14.66449628525579
   296   3      7.1545981519780799      11.038358233962677      16.247448038906548
   297   3      7.8540975504464203      10.702207147432564      18.410552977322659
   298   3       9.348167230372793      15.864075655666985      17.748849811487307
   299   3       6.460512118802062      14.157984721128614       21.12988605577106
   300   3      5.6769838428868189      18.108199084334306      21.133240403118812
   301   3      8.3129212537852553      10.200969789712799      19.633620452353007
   302   3      1.9811021920162994       17.17686960344783      17.629376170170168
   303   3      6.7075951078700644      12.091750140974575      17.106301882087692
   304   3      5.7032354581857714      16.096737813456144      22.462814186523506
   305   3      4.2358656079616361       12.82001260481173        22.3938991816051
   306   3      1.1853708896153603      14.370155733781651      18.285666084819898
   307   3      4.7388307160615906      13.938373097898049      22.969820415902742
   308   3      2.0221242392776375       19.25304032550892      18.654749129745966
   309   3      1.6651989247479961      10.726183790766964      19.460592138665184
   310   3      7.3713129259287324        12.0382167416627      18.305507293782977
   311   3      7.2118486074136623      15.008369994508403      20.336197156803973
   312   3      6.6942450049125402      12.826894624937291      20.713049463307613
   313   3      7.6638475876000651      12.904635808600197      19.496096989413079
   314   3      7.7567498207843322      14.374715131394979      19.231084362060152
   315   3      5.7147529655034868      18.797532178070171      19.886009061315086
   316   3      8.9841916678626728      14.930183922474507      18.666957225833471
   317   3      5.0704392183699039      18.778229039158571      22.338015145832642
   318   3       6.971651118402451      18.755025271792835      19.023788572950131
   319   3      9.0200390810401121      12.463978788282301      19.978070646125957
   320   3      6.2908026823686658       16.90125752983597      21.435256297120318
   321   3     0.65650326486187727      18.884939940175933      18.436730906927338
   322   3     0.63287380905563728      17.532449553420914      17.914047620856941
   323   3      5.6491713253344891      14.711537695036014      22.181161057992661
   324   3      5.8307489583449579      11.821540227202558      21.080656042615232
   325   3      2.7537252318428882      18.255346136506315      17.917800962392626
   326   3      0.4085816328645972       11.26029157892189      18.887783023745556
   327   3      9.2311822336949803      11.073917784599557      20.264949916915242
   328   3      4.8834948737912711      19.839913279395201      19.669812129302251
   329   3      7.5775866089445216      16.312504665162294       20.94546166943859
   330   3      5.1992263050712939      11.806657837139316      22.392903458163062
   331   3      7.8516441125021474      19.752092783368564      19.590388931466819
   332   3      2.5911913876275223       15.91309866340481      17.081230915191178
   333   3      1.5967591618153825      14.825225137495536      17.088681275769439
   334   3      7.7851103252887244      10.071571623133051      17.113872887723623
   335   3      2.8133216570170378      16.282531355627032      28.251109170974278
   336   3      4.8622471743281981      19.818693668289399      27.127975687708684
   337   3      4.9508362545470179      16.688116504583451      23.521278546423456
   338   3      1.1559435311546229      19.159864586793258      24.943700316043763
   339   3      3.4704180488164109      14.884908441877744       26.28489990777291
   340   3      2.8538182488720172      17.274160446523446      25.689146866813051
   341   3      3.6385252671044999      17.892116687956058      26.674928443886007
   342   3      4.0449121575068006      13.823541369753233      25.436972066608991
   343   3        4.94015888942298      19.049691057122129      24.781934496143975
   344   3      8.7477012097412832      14.197669052009871      26.218567297450907
   345   3      7.3066577645728303      13.518712516529108      24.590429458873711
   346   3      4.5999273409425099       18.81821484154047      26.193560844052829
   347   3       5.500862816485216       11.84105379229614      24.906343116791209
   348   3      4.3367790948003631      12.415044682532756      25.580122810968657
   349   3      9.5969465061846488      13.633892193076038      25.130713914950345
   350   3      3.4207582576851654      16.056357601286734      25.434778933813746
   351   3      8.7009078021397546      13.257618309637049      24.055423426946525
   352   3      7.5936839500193907      14.629428965667968      25.399988656877021
   353   3      8.1978950479688315      13.129930696865568      27.087914418013874
   354   3      4.2133471372053259      15.805313331060622      24.312531680311359
   355   3      4.4141820619658132      14.430162098729616      24.216035460734215
   356   3      5.3105746366203634      11.031326210158941      23.582250341766244
   357   3      1.7473785690094779      17.825065245142429      24.766151123664912
   358   3      9.2702407551364896      18.333829534595132      24.938992744385192
   359   3      7.4260600860656032      12.154566269725189      26.560222976852017