(written by ASE)

135 atoms
5 atom types

0.0                      20  xlo xhi
0.0                      20  ylo yhi
0.0      5.0632192734262773  zlo zhi

Atoms # atomic

     1   1       8.696629238164407      7.2394344496137037     0.55680383592052962
     2   2    0.032843036882437282      2.8928583718894667      4.1948058781441766
     3   1      6.0116610995009356      8.3776590429550275      1.4890943808149188
     4   1      4.7905304529340569      5.5080962691798918      1.3755294666852862
     5   1      3.1659817560478265      5.7457944465183797      3.0714914210096644
     6   2      6.4633559249189343     0.91064443227345082      1.5520734492423998
     7   1      9.2604078339028959      1.0583948366690275      4.0793156596651663
     8   1      5.7491271769303376      2.0870944615858917        2.49465685654582
     9   1      6.8706976786565255      3.0867104865551824       4.292602556780686
    10   2      5.6806189796003972      1.9021080615097321      4.1927280091668813
    11   1      2.7763929275250794      1.5822686396729846      2.4332173501465135
    12   1       5.681167418324331    0.052488278440738188     0.31515759109747776
    13   2      2.5097422949722952    0.028684740507411988      2.7381704287456863
    14   2      7.5208072398199564      8.3185627131734368     0.75434726899334947
    15   2      9.5608825969489342      6.9441121450150645      1.8807423569286852
    16   2      5.1903078112790348      9.5743621587294854     0.65620900796647597
    17   2      5.2639796457021184      7.0142769907421343     0.92057306174285181
    18   2      6.3480347295191883      8.2949610735167543      3.0465303599322979
    19   2      4.8193312183796841      5.2963261151061216      3.0795206409610927
    20   2      3.0577324546685962      5.4327811955559193      1.4014443086545008
    21   2      1.2944577462168314      8.9491943669227609       3.701181590907364
    22   2      5.6450952690268714      4.6126315689495065     0.25499420075145096
    23   2      4.2357616867165042      2.1213938101082199      1.8728153514382413
    24   2      2.6002781259303136      2.2911152008725399      3.8717839507542986
    25   2      1.6990880103099515      2.0006187895653937      1.2762824578544496
    26   2      3.2201423821626429      7.3329124930677203      3.5556401388348178
    27   2      1.9810123007523117      4.9439802674457836      3.9123842630867571
    28   2      6.7870446002134344      3.4555406239929742      2.6279142407282414
    29   2      8.2828883771381676      2.3151223095211386      4.3914220785886329
    30   2      8.0773060314110818      5.7856258567649999      0.1887437959829672
    31   1      1.6220671472535724      3.4517361688549872       4.466706462679177
    32   1      6.8759973777182193      8.2922916462536378      4.6059537469515597
    33   1      2.4784087849536736      8.3974922593334291      4.5781405510759399
    34   2      8.2709676918734196      9.1414295561129606      4.7007382580821613
    35   1      8.3006664462237403       18.17582406959815       3.796482046537434
    36   1       5.354187803258549      17.218995050026187      3.6294289827628994
    37   1      5.0391287658476438      17.145532370470111     0.79539183301255001
    38   1      9.9719495300502068      15.628949033732415      2.6905193258337263
    39   1      1.1295739962843563      16.152968996385333      2.4642398605610119
    40   1      2.4579311066787497      18.708588498224753      3.6281998091873326
    41   2      1.3091599727442491      17.689768257541377      3.0424383398489496
    42   1      8.2550074096138477      12.980783780624723      2.6830897882207196
    43   1      5.3740852929267149      12.503734570284522      3.2806115596335381
    44   1      4.8110683971965997      11.197134668336515     0.40120927748345636
    45   1       1.842635412874053      12.252800136818237     0.80106555838193927
    46   1      2.6821280916897656       13.80421517427858      3.5279175025879574
    47   2      5.1185117039508885      18.793882871310256      1.0931032317673957
    48   2      8.6055408097231449      19.747652865504076      3.3046460881237181
    49   2      3.2102096617872822      11.552022763353833     0.18879117848556604
    50   2      4.2495711666457217      13.542262686951974      3.7034053968408571
    51   2      2.0947623525789538      12.792534254170928      2.3841340411493057
    52   2       3.891610890735766      17.908905133466373      3.6090921802813654
    53   2     0.70081361979119094      11.116937146982719     0.77178974410317736
    54   2      1.1767915760031114      16.088455636888149     0.81923418691007477
    55   2      9.1409753923754256      17.059790198424871      2.9346827677174758
    56   2      5.2009203271026472      12.037305285606905      1.7132769972625255
    57   2      6.6936938050853456      13.279021210444707      2.9485862353871184
    58   2       8.449589675190639      12.553759779895621      1.1019424698967146
    59   2      5.2426419616524491      11.262958448513585      4.3520654519846182
    60   2      8.5880590409161499      11.793987067735559      3.7446907414983635
    61   2      6.6814549452314154      18.129740747352223      3.6123993406865686
    62   2      9.0431683319486051       14.35943105867703      2.9906122550724277
    63   2      5.2942750884282832      16.399683280085718      2.2387412855988451
    64   2      2.3922861240160911      15.326672591431798      3.0453840109402606
    65   1      8.5557695890977676      10.733022030378685      5.0321354727145255
    66   2      5.6110088524469592      16.350606440167699      5.0509629743908881
    67   2      2.0934290732520466      13.799388646439258      5.0574937300658895
    68   1      15.455208846507746      7.6881673840998142      1.6671688180146909
    69   1      17.975264859103959       7.348727941391906      2.9560360704090307
    70   1      19.762466281862547      9.3685913691390681      3.7043626219983992
    71   1      10.762485306601707      6.1786041767941935      2.6682119475190973
    72   1      13.273005783240173      6.9501929975843009      3.7267914288762967
    73   1      17.739635358623687      6.1453673637652262     0.23185526718958371
    74   2      14.492323141890173      6.8278293636443719      2.6679671157599643
    75   1      18.093499725996509     0.80945948043691152      1.6401230971816716
    76   1      11.934019536476805        3.71278728117858     0.95591024470531305
    77   2      11.946851101967473      7.3238195373273296      2.8731541637147764
    78   1      14.475050888668708     0.81494258807424447      4.0914295852013787
    79   1      11.927519587750099       1.983945948495645       3.305568707363765
    80   2      17.328083330118581      6.0120684844955807      3.5771246833290391
    81   2      16.685437881442041      8.2678206878106906      2.5863207535337125
    82   2      18.608602411447706      6.9060165446822239      1.4512469450506416
    83   2      16.124228175519558      6.7617953641674609     0.46502800133860056
    84   2      12.663053470451118      2.5787147194892568      1.9415866227852625
    85   2      11.472897249176086      3.2587008052302124      4.2309770625880745
    86   2      18.905041832364109      7.9548341970459475      4.1839328389131261
    87   2      10.450956512612217      1.3306533018775184      3.0164978893835297
    88   2      12.831375590643521     0.98506278137844316      4.1980776704548326
    89   2      19.389646607018388    0.050820258989642056       1.100770270059936
    90   2      19.237933458963294      9.5982117711149684      2.1706580078900934
    91   2      17.751858188487589      2.0249324600756999     0.64456900334613998
    92   2       15.32832294056343      2.2105872179037989      4.4239767681648594
    93   2      10.412950841384559      5.4979276640774613       4.167375316351233
    94   2      14.585645527071147      0.5607130470673336      2.4931689153767564
    95   2      13.013358213000812      5.4628247137768717      4.4053065854980957
    96   2      14.625548610629981      8.9803434121869827       1.097136040442745
    97   2      18.218752435853009      1.4022214621708899      3.1267386871217582
    98   2      11.211676921130582      4.9724420015558737      1.6221191878060175
    99   2      18.065214900579946      4.5826841939718186     0.60725191535685852
   100   1      18.829122703091979      1.8005374269107388       4.529735158880591
   101   1      11.646946604343807      4.7016938653373108      4.8925529574848241
   102   2      13.359278465814274      8.0793347880636865      4.9353777072180485
   103   2       15.76627599362892      4.5532882396431704      4.9983143984716989
   104   1      15.259110088851031       19.76123740811137      1.2840704502741183
   105   1      15.105207711471147      16.916888598916366     0.36424922480843591
   106   1      18.041220982239651      16.193138051383333     0.11563146586814096
   107   1      16.626226637317366      12.006806658690083      2.0649931072006247
   108   1      15.235605757794826      10.878286792047696      4.1933023893244012
   109   1      19.194153702016507      10.696276279176134      1.0618223796284703
   110   1      15.105498528449266      13.767605383893823      3.9843292412067579
   111   1      19.250569570515893      14.878174027880906      4.3737550390934068
   112   1       14.14598242308772      10.489405092783286      1.4562136278656652
   113   1      12.217055085671484      14.296193018351593       4.241426070140534
   114   2      16.593233915329428      16.281120474463719     0.90539969357960892
   115   2      13.600950404383632      14.208393618244193      3.3924115699330386
   116   2      16.836078129689994      19.784636699890232      1.5277301194532882
   117   2      19.763737629070832       15.40431584303507       2.919435318841586
   118   2      18.930016537798487       17.51303912433562      0.5506425810009592
   119   2      14.099694573236912      10.566167142457761      3.1191863634795567
   120   2      14.760567744221254      18.202275248622097      1.1859175547715797
   121   2      13.839592821518139      15.835026911675669     0.42381619011198701
   122   2      11.289307632362211      15.538545306242392      3.7452254875546052
   123   2      10.554874650667745        15.7459852099052      1.2039591693692486
   124   2      18.212705374415556      12.036007572728648      1.5452693126953179
   125   2      16.707700508841455      10.962871791079499      3.4198749336217737
   126   2      16.139016941748572      13.454128361229474      2.7717136269041269
   127   2       12.72040259905638      11.088960020452754     0.91109057135421345
   128   2      18.691399391979932      14.651067138322952     0.22744720098214799
   129   2      11.488430548569813      12.792335397081294      3.9991124885198097
   130   2      15.384812211352674      11.585822385778533     0.98531370108076455
   131   2      19.189950682412082      13.210818368737078       4.431640683655349
   132   2      19.713061357320157       10.54181065042866      4.7605170325283979
   133   2      14.932821916236884      12.386754104902966       4.863534886136275
   134   2      17.858971561566076      15.548851289915683      4.8779041560082597
   135   2      15.093874548983948      19.563331123989553      4.9755370782845709


Velocities

     1                       0                       0                       0
     2                       0                       0                       0
     3                       0                       0                       0
     4                       0                       0                       0
     5                       0                       0                       0
     6                       0                       0                       0
     7                       0                       0                       0
     8                       0                       0                       0
     9                       0                       0                       0
    10                       0                       0                       0
    11                       0                       0                       0
    12                       0                       0                       0
    13                       0                       0                       0
    14                       0                       0                       0
    15                       0                       0                       0
    16                       0                       0                       0
    17                       0                       0                       0
    18                       0                       0                       0
    19                       0                       0                       0
    20                       0                       0                       0
    21                       0                       0                       0
    22                       0                       0                       0
    23                       0                       0                       0
    24                       0                       0                       0
    25                       0                       0                       0
    26                       0                       0                       0
    27                       0                       0                       0
    28                       0                       0                       0
    29                       0                       0                       0
    30                       0                       0                       0
    31                       0                       0                       0
    32                       0                       0                       0
    33                       0                       0                       0
    34                       0                       0                       0
    35                       0                       0                       0
    36                       0                       0                       0
    37                       0                       0                       0
    38                       0                       0                       0
    39                       0                       0                       0
    40                       0                       0                       0
    41                       0                       0                       0
    42                       0                       0                       0
    43                       0                       0                       0
    44                       0                       0                       0
    45                       0                       0                       0
    46                       0                       0                       0
    47                       0                       0                       0
    48                       0                       0                       0
    49                       0                       0                       0
    50                       0                       0                       0
    51                       0                       0                       0
    52                       0                       0                       0
    53                       0                       0                       0
    54                       0                       0                       0
    55                       0                       0                       0
    56                       0                       0                       0
    57                       0                       0                       0
    58                       0                       0                       0
    59                       0                       0                       0
    60                       0                       0                       0
    61                       0                       0                       0
    62                       0                       0                       0
    63                       0                       0                       0
    64                       0                       0                       0
    65                       0                       0                       0
    66                       0                       0                       0
    67                       0                       0                       0
    68                       0                       0                       0
    69                       0                       0                       0
    70                       0                       0                       0
    71                       0                       0                       0
    72                       0                       0                       0
    73                       0                       0                       0
    74                       0                       0                       0
    75                       0                       0                       0
    76                       0                       0                       0
    77                       0                       0                       0
    78                       0                       0                       0
    79                       0                       0                       0
    80                       0                       0                       0
    81                       0                       0                       0
    82                       0                       0                       0
    83                       0                       0                       0
    84                       0                       0                       0
    85                       0                       0                       0
    86                       0                       0                       0
    87                       0                       0                       0
    88                       0                       0                       0
    89                       0                       0                       0
    90                       0                       0                       0
    91                       0                       0                       0
    92                       0                       0                       0
    93                       0                       0                       0
    94                       0                       0                       0
    95                       0                       0                       0
    96                       0                       0                       0
    97                       0                       0                       0
    98                       0                       0                       0
    99                       0                       0                       0
   100                       0                       0                       0
   101                       0                       0                       0
   102                       0                       0                       0
   103                       0                       0                       0
   104                       0                       0                       0
   105                       0                       0                       0
   106                       0                       0                       0
   107                       0                       0                       0
   108                       0                       0                       0
   109                       0                       0                       0
   110                       0                       0                       0
   111                       0                       0                       0
   112                       0                       0                       0
   113                       0                       0                       0
   114                       0                       0                       0
   115                       0                       0                       0
   116                       0                       0                       0
   117                       0                       0                       0
   118                       0                       0                       0
   119                       0                       0                       0
   120                       0                       0                       0
   121                       0                       0                       0
   122                       0                       0                       0
   123                       0                       0                       0
   124                       0                       0                       0
   125                       0                       0                       0
   126                       0                       0                       0
   127                       0                       0                       0
   128                       0                       0                       0
   129                       0                       0                       0
   130                       0                       0                       0
   131                       0                       0                       0
   132                       0                       0                       0
   133                       0                       0                       0
   134                       0                       0                       0
   135                       0                       0                       0
