LAMMPS data file via write_data, version 2 Aug 2023, timestep = 6000, units = metal

1691 atoms
5 atom types

0 20 xlo xhi
0 20 ylo yhi
0 120 zlo zhi

Masses

1 28.085
2 15.999
3 12.011
4 1.008
5 18.998403163

Atoms # atomic

1 1 8.696629238164407 7.239434449613704 0.5568038359205296 0 0 0
2 2 0.03284303688243728 2.8928583718894667 4.194805878144177 0 0 0
3 1 6.011661099500936 8.377659042955028 1.4890943808149188 0 0 0
4 1 4.790530452934057 5.508096269179892 1.3755294666852862 0 0 0
5 1 3.1659817560478265 5.74579444651838 3.0714914210096644 0 0 0
6 2 6.463355924918934 0.9106444322734508 1.5520734492423998 0 0 0
7 1 9.260407833902896 1.0583948366690275 4.079315659665166 0 0 0
8 1 5.749127176930338 2.0870944615858917 2.49465685654582 0 0 0
9 1 6.8706976786565255 3.0867104865551824 4.292602556780686 0 0 0
10 2 5.680618979600397 1.902108061509732 4.192728009166881 0 0 0
11 1 2.7763929275250794 1.5822686396729846 2.4332173501465135 0 0 0
12 1 5.681167418324331 0.05248827844073819 0.31515759109747776 0 0 0
13 2 2.509742294972295 0.028684740507411988 2.7381704287456863 0 0 0
14 2 7.520807239819956 8.318562713173437 0.7543472689933495 0 0 0
15 2 9.560882596948934 6.9441121450150645 1.8807423569286852 0 0 0
16 2 5.190307811279035 9.574362158729485 0.656209007966476 0 0 0
17 2 5.263979645702118 7.014276990742134 0.9205730617428518 0 0 0
18 2 6.348034729519188 8.294961073516754 3.046530359932298 0 0 0
19 2 4.819331218379684 5.296326115106122 3.0795206409610927 0 0 0
20 2 3.0577324546685962 5.432781195555919 1.4014443086545008 0 0 0
21 2 1.2944577462168314 8.949194366922761 3.701181590907364 0 0 0
22 2 5.645095269026871 4.6126315689495065 0.25499420075145096 0 0 0
23 2 4.235761686716504 2.12139381010822 1.8728153514382413 0 0 0
24 2 2.6002781259303136 2.29111520087254 3.8717839507542986 0 0 0
25 2 1.6990880103099515 2.0006187895653937 1.2762824578544496 0 0 0
26 2 3.220142382162643 7.33291249306772 3.5556401388348178 0 0 0
27 2 1.9810123007523117 4.943980267445784 3.912384263086757 0 0 0
28 2 6.787044600213434 3.4555406239929742 2.6279142407282414 0 0 0
29 2 8.282888377138168 2.3151223095211386 4.391422078588633 0 0 0
30 2 8.077306031411082 5.785625856765 0.1887437959829672 0 0 0
31 1 1.6220671472535724 3.4517361688549872 4.466706462679177 0 0 0
32 1 6.875997377718219 8.292291646253638 4.60595374695156 0 0 0
33 1 2.4784087849536736 8.39749225933343 4.57814055107594 0 0 0
34 2 8.27096769187342 9.14142955611296 4.700738258082161 0 0 0
35 2 3.233957998885014 9.75589704212875 5.0817801103208815 0 0 0
36 2 7.0252243404085535 6.746875417537188 5.201664584806586 0 0 0
37 2 5.7557094699217295 8.985190712155752 5.518661817742924 0 0 0
38 2 6.590771688398501 4.152180392240804 5.500798095462507 0 0 0
39 2 4.548355125016021 5.84322949416057 5.702539563525366 0 0 0
40 2 2.1137208956551774 7.3830273831244675 5.804694975440135 0 0 0
41 2 2.2402131490610255 1.0718298869334963 5.950959533564054 0 0 0
42 5 7.297628052451115 1.0631468765672036 5.980942687533796 0 0 0
43 2 4.205371815573708 0.11707378057870539 5.997648573831112 0 0 0
44 1 6.09911209805202 5.635191447930569 5.999540467263693 0 0 0
45 5 4.339127936026577 3.1159375022040714 5.99516409562484 0 0 0
46 5 0.04733616151037623 7.812255849841058 5.9985325871230915 0 0 0
47 2 1.9908851707367037 3.503677473060449 5.995789992759931 0 0 0
48 1 3.358215201299941 4.614902834015867 5.998698366401715 0 0 0
49 3 1.8242364098601818 1.3564450846271623 7.114278178059324 0 0 0
50 3 2.2230497915612113 7.164617466310038 7.125156205511197 0 0 0
53 1 5.94284206307639 0.22582587273915142 6.441532114854013 0 0 0
52 3 2.6463862042263404 5.75988218438083 7.402477874151146 0 0 0
51 5 6.230772761500826 5.679672085205621 7.581697751452964 0 0 0
56 5 5.859919557171507 0.344500335453392 8.012990278784898 0 0 0
58 3 1.7458557811282693 8.144028758015175 7.946150479108761 0 0 0
919 3 9.14866872082627 3.551571461963048 7.330346782211271 0 0 0
54 3 2.328348292563952 5.008258709678534 8.436852428970322 0 0 0
920 5 9.593467105653597 2.981445207628355 8.37406754418459 0 0 0
60 3 1.049490669562539 9.025490453691646 8.575088341691961 0 0 0
64 5 6.611848473901607 3.201267799663285 9.170058581991313 0 0 0
62 3 0.380801222593215 9.453443488011768 9.75199375609177 0 0 0
65 5 8.760220054543169 8.44423392231505 9.612532061572205 0 0 0
70 5 1.5448917997483536 1.816871281683342 9.867804459176531 0 0 0
63 3 1.9164478211843294 4.30287368107876 9.462025241912587 0 0 0
68 3 8.3648744802154 8.849574416191892 10.859866937770258 0 0 0
69 3 1.2430515874739303 3.157303766710484 10.112144691566792 0 0 0
61 3 7.139094319031654 2.7997373526043927 10.346649106491643 0 0 0
55 5 6.722552715415947 1.542732097099633 10.53347920434541 0 0 0
83 3 2.1631785105830943 3.9667735521487253 10.84303536960713 0 0 0
57 5 0.2464545190365494 9.980047361924239 7.801544359584069 0 0 0
84 5 9.259057701026766 3.5124183730862635 10.902755496325732 0 0 0
107 3 4.262534176000288 0.4943464602014428 14.794619945492073 0 0 0
110 5 6.733152705397214 6.14913141399366 11.23560557115365 0 0 0
74 3 6.546664434558 2.527883154471013 15.60211761362115 0 0 0
71 3 3.0044937077734994 6.3104027509567135 14.951153232230036 0 0 0
128 3 9.18708086855299 9.046742431456108 16.560930871166505 0 0 0
72 3 5.557139964822411 8.694827107845091 15.255255049912313 0 0 0
75 3 2.9709489957763724 7.791967915795298 15.54059477480143 0 0 0
115 3 6.166899460533041 5.101016683062277 11.824959920587295 0 0 0
114 5 1.5944283799276913 6.807908407665671 11.854254944112418 0 0 0
73 5 3.6005203527616514 2.6327397232689953 12.059252630561282 0 0 0
79 3 6.903520938695541 5.020161089304835 15.547680547247102 0 0 0
80 3 2.0158112305694744 9.553813993028085 14.162124502187385 0 0 0
76 3 6.9509546788115495 8.757018244994393 15.104465554578567 0 0 0
131 3 5.296459553487675 0.9692749706677193 17.107502204978505 0 0 0
108 3 0.9911950069839457 9.084113314499987 15.002378232661776 0 0 0
127 5 9.336109888298806 2.7246724065398222 15.343725462210111 0 0 0
106 3 1.3011207732205285 1.373850464188028 13.443990804550685 0 0 0
105 3 2.5036967827535763 3.5254137213438597 14.458573204331444 0 0 0
104 3 3.0228662394095607 1.0290607535563912 14.423658924426665 0 0 0
103 3 2.9175464723567486 5.838692362068331 13.558289836464924 0 0 0
102 3 7.416271357827164 5.936787331672084 14.768744662855356 0 0 0
101 3 7.226206300814396 1.5540805007475775 14.809048164747974 0 0 0
100 3 3.253051886302065 8.86891173912768 14.56460954626222 0 0 0
99 3 7.501214315058968 2.0154590685584886 13.516633522166236 0 0 0
87 5 4.781051580640339 0.4618960703374678 12.488203673873976 0 0 0
97 3 7.711244331781128 8.937236144861275 13.908829036259105 0 0 0
96 3 8.107290206544226 6.504474925752591 13.798639021582952 0 0 0
95 3 6.775555235955524 3.7357503821986815 14.898755757538073 0 0 0
94 3 8.213461542708734 7.851056245038061 13.228818835061348 0 0 0
93 5 3.730011014180402 7.123580340279788 11.736819980644473 0 0 0
92 3 7.22286855692325 3.409165473620328 13.506616724808255 0 0 0
91 3 2.7179199674194656 6.70267352909769 12.511589230431715 0 0 0
90 3 2.801549491415996 4.424227858864629 13.301805320962735 0 0 0
89 3 2.8292767015681637 3.810722354281084 11.996787323331596 0 0 0
88 3 4.626643739909629 8.844952332219567 14.20077742481403 0 0 0
109 5 5.020892791638508 9.118258068197738 12.912464909589161 0 0 0
86 3 7.142324859272589 4.0216098548226045 12.217451441332244 0 0 0
85 3 2.1684756028745222 2.1973590925231514 14.319950207633953 0 0 0
111 3 8.862503716209034 7.970051472223312 11.926890524214855 0 0 0
78 3 2.2402904473160907 0.36259382251991545 13.387640441716231 0 0 0
82 5 5.616157954378824 5.480057854915085 13.036919288500851 0 0 0
112 5 9.102330082813097 0.9534697663789262 11.956997816269755 0 0 0
122 3 7.989450525262392 7.439804886536313 17.107082984955273 0 0 0
81 3 8.104588233419614 0.9649449314153 12.801554152739646 0 0 0
121 3 7.882785166029978 8.553174931629187 16.14886189901514 0 0 0
130 3 2.7146236138196436 5.419955182322241 15.894077190337983 0 0 0
180 3 1.9479073869266754 4.065554599635466 17.08600080561167 0 0 0
124 3 6.712156770411246 5.258431185945357 16.951974773573742 0 0 0
118 3 3.868012741680232 7.914324108899522 16.828999820093273 0 0 0
129 3 5.830431778829135 2.2062397633417765 16.803955625750827 0 0 0
67 5 5.130440754398572 4.678203422149474 11.062460898258653 0 0 0
77 3 0.8085579777435602 7.448851607571402 16.776548211564567 0 0 0
490 3 4.768389373745039 0.10570803704825535 16.117419073470938 0 1 0
120 3 4.967275092168433 8.723911599145374 16.5667796538674 0 0 0
499 3 7.70309512053617 0.2377551498017831 14.897081604699949 0 1 0
125 3 2.5592268775750067 4.044818971578804 15.777703779569705 0 0 0
98 5 9.075806351710929 5.6673002585762235 13.245963242251678 0 0 0
126 3 1.5436251470161437 8.111927591495052 15.786930330514762 0 0 0
116 3 7.901169188412998 3.508175179160893 11.192676951109473 0 0 0
113 5 2.0207363442910036 9.205999715494084 11.054381471559452 0 0 0
162 5 7.821962776522615 1.349306966589844 17.806159721513406 0 0 0
145 3 1.7583466103221723 0.3105432204718362 19.635192916201273 0 0 0
175 3 7.566809035354529 2.5883940216553443 21.216459316180693 0 0 0
578 3 5.395688334605832 0.35082000884449505 18.44286632964166 0 1 0
132 3 0.5879821415064063 2.530750986842596 20.48056983455528 0 0 0
197 3 2.480949341028601 7.089774373883618 22.257557394064474 0 0 0
171 3 9.17468045309771 8.005787949231015 17.530003194925385 0 0 0
136 3 6.005060480227224 4.423527401815868 17.85032720232591 0 0 0
164 3 1.6539158327506909 2.8761394108780243 21.474221098146355 0 0 0
168 3 1.963787892230945 7.613941469342196 20.003602754160312 0 0 0
167 5 2.8176459616035205 2.9584415482660607 20.907165471150094 0 0 0
166 3 1.5109462561308455 6.539860827628226 17.716805114910404 0 0 0
165 5 5.805058899140461 5.162970960839197 20.18025518204582 0 0 0
137 3 0.6623540486781301 7.90784315991699 20.399321860513616 0 0 0
138 3 5.3630316987312305 9.638686609748568 17.59121040652126 0 0 0
161 3 0.6560597879677685 1.3425041022489406 19.870731863295163 0 0 0
160 3 9.514374408588424 2.3447467844968592 19.611782129604943 0 0 0
159 3 5.599836033313272 8.904721636870063 18.797011225877867 0 0 0
157 5 2.7726420499824607 1.0592128496457152 19.07440729924714 0 0 0
140 3 6.585974626536303 9.809262301972339 20.81834767508911 0 0 0
155 3 4.567572252372379 8.1179406395982 19.26630245883923 0 0 0
154 3 8.185014168692145 5.9502137349612365 18.874154690496013 0 0 0
153 3 5.324664508909929 4.790868836525365 19.01590473450522 0 0 0
152 3 6.111177668509975 1.0622055433818884 19.35802287703409 0 0 0
151 3 9.185798764118045 6.547763912998841 19.476577871145835 0 0 0
150 3 7.106923726738511 2.1012742323819946 18.85512881819449 0 0 0
149 3 8.107358139525692 2.535753225965763 19.81648942956806 0 0 0
148 3 4.248371772113886 7.966350693311291 20.661103127429392 0 0 0
147 3 2.301213272723819 7.262581194570332 18.677146244470805 0 0 0
146 3 3.5683397017748426 7.70376113425852 18.23502167020753 0 0 0
139 3 2.921980786118442 7.5394664231246455 21.0139450761828 0 0 0
144 5 4.0105335112657166 4.603631251714094 19.14532103746515 0 0 0
225 3 8.184509940977616 3.352691898443662 22.16463512030577 0 0 0
142 3 6.254649209669422 3.0217068380169287 17.86075230313827 0 0 0
141 3 6.725530487372941 9.411281735230816 19.498250407759414 0 0 0
135 3 0.17485194354868144 7.4454807244039545 21.620485132551106 0 0 0
172 3 7.520764554696235 6.248425362112514 17.653423910327962 0 0 0
156 3 9.747083686195833 7.7353843851405735 18.758943246661115 0 0 0
134 3 5.704500348200206 0.9693101873133937 20.73859642424278 0 0 0
178 3 5.150622660947976 8.031758765410096 21.786818474990408 0 0 0
174 5 1.1914252633534892 3.1126898211513074 17.63576093416518 0 0 0
177 3 9.139121655513192 4.367931611701941 21.885787295215746 0 0 0
163 3 6.191574979589904 8.97734446474053 21.878524291139186 0 0 0
179 3 6.4293456953223895 1.8812426489427512 21.460133068060635 0 0 0
176 5 1.4370256907906074 4.095939718753594 22.029633861318565 0 0 0
1004 5 0.13915888983183047 4.385952027852367 19.248877561709282 1 0 0
552 5 2.2171759622290543 0.054580350039386716 20.906477268494122 0 1 0
133 5 7.861422253617425 9.882499460735868 18.843511578689053 0 0 0
143 3 9.950915469828171 4.62074418936711 20.81389822262289 0 0 0
169 3 2.1107451514865088 5.406619768562816 17.24187924399652 0 0 0
181 3 4.362772422132577 0.9455327219212051 25.51828511993397 0 0 0
182 5 8.126516315889504 9.414101704005137 24.985997738563835 0 0 0
268 5 8.390484364283893 8.02693443212705 27.75621188147614 0 0 0
190 5 0.4182272823673245 0.4209539386483518 26.909808429825546 0 0 0
158 5 1.7530862074861142 2.0067472753673723 22.552792846625387 0 0 0
184 3 9.266371553793046 3.459696745470806 23.021298775999774 0 0 0
224 3 1.2866781097852868 2.6409770678079063 26.50802227328688 0 0 0
223 3 8.335680192369082 3.57870417491047 25.965783916477424 0 0 0
222 3 3.9128788339523357 5.543544961669673 23.93677322417062 0 0 0
221 5 7.754242894139432 1.8888794746542839 24.24193681884738 0 0 0
220 3 3.193731164987976 7.772390642688473 25.800016164680812 0 0 0
219 3 7.9126633193732605 2.180718613401957 25.59360575837377 0 0 0
218 3 1.5111901836189778 8.258666499712955 23.93302078083028 0 0 0
217 3 2.7166768883829895 7.690689641784724 24.47824440950818 0 0 0
216 3 5.794092080254297 0.8934189621166632 25.65434684400472 0 0 0
215 3 5.665294939322955 7.076424697015095 24.031969755635807 0 0 0
214 5 8.877053397910048 1.2982702761739042 26.125593183184577 0 0 0
213 3 3.4479047880207903 6.860993511921395 23.361393333005065 0 0 0
212 3 1.205248387615573 7.519815776312644 22.69507870999741 0 0 0
211 3 2.534115932454546 2.8622552177888276 25.88987418051896 0 0 0
210 5 6.004311783538552 4.7030272823426085 24.35587361842649 0 0 0
209 3 6.977371063945718 7.472912291314221 24.149892822189987 0 0 0
208 3 4.827220751628512 7.432483341815889 23.0035462844678 0 0 0
207 3 9.524083533102697 4.256143902981687 26.313671977774913 0 0 0
206 3 5.163469581229613 4.806823853793168 27.151668751961076 0 0 0
205 3 6.539476118875612 1.8580558322003227 26.158855430067188 0 0 0
204 3 3.387527289265624 4.310006658385586 23.97970574531865 0 0 0
203 3 5.133711497337735 5.787414362367626 24.657202178161963 0 0 0
228 3 6.416485028232763 2.530813939068701 27.47347726621675 0 0 0
201 5 4.239200425965507 0.8876128800000473 23.01233819358669 0 0 0
200 3 4.84690932515827 5.832716140616773 26.15160706710439 0 0 0
199 5 1.5913056234601266 4.929657529872631 25.274481273974878 0 0 0
198 3 2.5676357788286164 3.9465918822660493 25.023491904545498 0 0 0
187 3 6.888700612704021 9.555457772064074 23.046290912740837 0 0 0
196 5 3.976657801971561 3.4053154052014896 23.083305748349655 0 0 0
195 3 7.221249231620095 8.830680152407188 24.15630104306236 0 0 0
194 3 2.5128565283552136 8.821008559105382 26.776746263555548 0 0 0
193 3 0.9466448940694948 9.445096884385647 24.52071557614217 0 0 0
192 3 3.6019470657502266 1.9132965210647654 26.364684775589893 0 0 0
191 5 1.193133184954315 8.354711220830474 26.982089423391916 0 0 0
183 3 7.586562979418314 4.382839123312183 26.90158311141114 0 0 0
189 5 8.049134314230004 6.62142191998925 24.11558636411569 0 0 0
188 3 3.6886245291129156 6.60392516337496 26.455374386276585 0 0 0
227 3 6.260714575481749 3.966452587002684 27.26199836225779 0 0 0
231 3 2.8115613994407602 4.942673833375268 27.821455140622994 0 0 0
226 3 0.6084310800753311 3.5144036811662693 27.519234602958118 0 0 0
1035 5 1.208008347408526 0.7928061604622333 24.964998149903312 1 0 0
229 3 0.541164436178029 1.4374681264631126 25.979389142372973 0 0 0
186 3 3.057797153540973 6.338489733556676 27.682088046305832 0 0 0
230 3 3.5761573479853253 1.563807561574315 27.69708189938472 0 0 0
242 3 8.836652314974598 4.882505438715779 27.42850017633147 0 0 0
263 3 4.137013945270478 4.461460955211372 28.069208564952284 0 0 0
271 3 9.466912158784158 8.639484289188777 28.240634583272136 0 0 0
699 3 3.674060512013777 0.1646086911974478 28.03492409681798 0 1 0
257 3 3.10782954110329 8.618768875086982 28.201779652278763 0 0 0
274 3 1.6169164384248258 4.401167463023668 28.27012808851965 0 0 0
266 5 2.0038422570543855 3.4244466214749307 33.46172183340002 0 0 0
679 3 3.5028029489895065 0.08890562228600123 29.46910870254051 0 1 0
233 5 6.656771358281446 8.956690035216537 29.304513725671253 0 0 0
234 3 1.3286554708225315 4.8211834775755325 29.649394108174196 0 0 0
283 3 8.613882129294723 7.181444691651768 33.28062963699904 0 0 0
270 5 6.868224269920304 9.771304615181588 31.41092396724775 0 0 0
236 3 3.6192067874220406 9.716023947783597 28.664305951969727 0 0 0
273 3 3.065408406910013 4.040235067117074 32.9243529057967 0 0 0
260 5 2.631956590015406 5.3294436211368845 32.73849222785076 0 0 0
259 5 4.965225058276278 9.122581064215773 30.61711244375029 0 0 0
256 3 8.51823242963643 4.998240548460188 32.059990646918344 0 0 0
255 3 9.495043808134241 8.973204595568546 31.906923703214634 0 0 0
254 3 8.94658169066595 6.855888724186364 30.83728909651604 0 0 0
253 3 3.783497374814113 2.0261133749394684 31.390405463877386 0 0 0
250 3 3.571551980445811 3.415087248411183 31.61231933128713 0 0 0
249 3 4.070769879606173 1.241133599066984 32.60101732458311 0 0 0
248 3 9.415604804507932 8.183195876569332 30.70794926023259 0 0 0
247 5 2.958919014974652 7.450637669161196 31.10038698532303 0 0 0
246 3 8.619428702367232 4.621642602385258 30.735299662192432 0 0 0
245 3 8.698744355732156 6.4368758514116315 32.10755153962947 0 0 0
269 5 0.9264099494236676 3.8640303993441827 30.55761784054942 0 0 0
663 5 5.8353215048093 0.037089788643939414 30.907307598427877 0 1 0
287 3 8.22800583824059 4.3536859719645316 33.24397635265255 0 0 0
235 3 3.6520836285361846 2.2699025329145885 28.927738874653627 0 0 0
237 3 4.043699839863039 3.646254989068958 29.19535375487049 0 0 0
240 5 3.6065828818044166 9.736033141617042 32.50147536604285 0 0 0
265 3 3.049948574581271 7.295193496566932 28.76275294090122 0 0 0
652 5 1.1985597204844043 9.42355975227724 30.210948860204958 0 0 0
262 5 6.998433458343327 2.5724441383844034 29.87061435081147 0 0 0
261 3 8.913607616393705 5.702436187905721 29.90166430639489 0 0 0
258 3 6.747204270989241 1.9918797278327338 28.707644004359846 0 0 0
1087 5 0.3552094461827703 5.810413792664312 29.79994879093884 1 0 0
252 3 3.511591561852154 4.230647195729262 30.454347706474138 0 0 0
251 3 2.6671401414603055 5.38642542831105 30.242222908560198 0 0 0
244 3 6.083792295623095 9.721317074344444 30.245372049119226 0 0 0
243 3 3.009716336946211 6.6685250740256485 30.056037158257784 0 0 0
670 5 0.9729004368146492 0.6457079990905191 32.31414090596758 0 1 0
241 5 6.909929357801952 0.6849789038553629 28.876198282086367 0 0 0
239 3 9.370988664585783 5.55399631109958 28.48188720024692 0 0 0
238 3 3.5706341103945576 1.4724175783335671 30.100138627685 0 0 0
267 5 9.385587371351505 1.4087636169675164 29.749918602265062 0 0 0
309 3 9.284727433272288 8.466914359285242 33.23261651512831 0 0 0
301 5 8.364213303508272 2.051334694838695 33.0221377466397 0 0 0
272 3 9.940307125975473 8.70305830756664 29.539229399036778 0 0 0
311 3 4.843088771045991 1.8058963300451256 33.66409982223307 0 0 0
296 3 8.849639811461433 3.053275050747742 33.78289243722393 0 0 0
275 5 2.7539416779637675 5.6549725753808655 35.30546063811977 0 0 0
286 3 7.572607075307106 5.214716845921509 34.07812760025885 0 0 0
276 3 4.8566274163971945 5.138346808507598 36.230965904678754 0 0 0
277 3 3.89695086978538 4.9894323334020605 35.14180054828028 0 0 0
288 3 0.9831985589522854 8.615652984771788 36.92769553237134 0 0 0
278 3 6.405346354178363 1.9570901740598279 36.69854870389945 0 0 0
289 5 8.751972617664432 1.3339360342049673 37.429820257823124 0 0 0
322 5 4.531468509729033 7.978391728365896 39.318537044790126 0 0 0
280 3 4.5591991354393695 4.0696955392666405 37.24481607286618 0 0 0
325 5 0.8968367751037742 8.960777892719191 35.62680963346767 0 0 0
281 3 7.8766738321435845 6.5132843187366944 34.37797972523492 0 0 0
282 3 8.590679635142818 2.8400883372778263 35.30073669747796 0 0 0
328 5 1.3858700455033632 1.0003945270755228 37.74870010154228 0 0 0
385 3 5.252944392752131 1.4586442470829328 39.515827543992536 0 0 0
326 3 3.3393484000619873 3.0147561525890505 38.954285335453356 0 0 0
279 5 1.4221130241013544 4.815591791732723 37.42097028934839 0 0 0
1172 5 0.40230681435510707 4.626480947299637 39.753985986187054 1 0 0
292 3 9.296524140081717 3.39629070682249 36.26456351057462 0 0 0
746 3 3.787763709061727 0.6200232043766974 37.841843212514235 0 1 0
741 5 7.030679036542198 0.3322226498670029 38.36455386404299 0 1 0
320 3 8.31039903193463 3.6840922227771418 38.9576829747399 0 0 0
319 3 7.451690122864912 2.602878790191376 38.92452638305666 0 0 0
318 3 7.731147593462389 5.049945780307818 39.10363118567519 0 0 0
317 3 4.358617871844655 1.9812416462199258 38.306744917921584 0 0 0
316 3 2.38372407015738 5.09431020512449 38.39041467822399 0 0 0
315 5 2.6151581433278084 1.8659198677063014 36.09364250850288 0 0 0
314 3 4.0661721666006905 4.165552486490343 34.02007980102388 0 0 0
313 3 5.046701165333316 3.1306195979645284 34.12036274215873 0 0 0
312 3 9.768013726593935 3.607387839155119 38.67506172986299 0 0 0
284 3 6.264860241121513 3.366955752370135 34.74596900190496 0 0 0
310 3 3.4958760623301743 4.197320504174718 38.19992295654012 0 0 0
308 3 7.140626346801726 2.564937579681219 35.530388623699956 0 0 0
307 3 7.459815239277351 1.5541459711784564 37.87085593021936 0 0 0
306 3 5.16488823776278 2.8226664890803925 37.39966654463587 0 0 0
305 3 5.595393805508707 0.8191671310501207 36.09300890418129 0 0 0
304 3 6.199435875367603 5.559713204551881 35.90788695539478 0 0 0
293 3 8.157337333638367 7.235242616941954 36.77367847175238 0 0 0
327 3 9.918713102332104 9.097672942720816 34.24712512789493 0 0 0
285 3 8.867720343717437 7.1737974054675675 37.921419592732605 0 0 0
321 5 2.186024482120126 8.70391307656853 37.40195789162766 0 0 0
299 5 2.693185918978693 6.397137801393253 38.259018715074646 0 0 0
298 3 6.704119121978226 4.648146010261088 34.9955873423753 0 0 0
297 3 8.620839969733588 6.1979095287202135 38.95346561271701 0 0 0
290 5 6.427786651680489 9.399251771926522 38.028963807882654 0 0 0
295 3 7.374986277061399 6.682152965848425 35.77545137584193 0 0 0
294 3 5.10101635276757 0.8509984413424178 34.712014596822776 0 0 0
302 5 9.155298493231122 9.347236894938408 35.357467342437424 0 0 0
303 5 0.16606981522738454 9.406178709240827 37.62111524693398 0 0 0
748 3 2.4970490973443242 0.7760623362871976 37.00538079625163 0 1 0
750 5 5.7791885156433365 9.39758531284067 35.280873629428214 0 0 0
300 5 0.531401068978407 7.296766950862566 37.12333573189436 0 0 0
348 3 1.7702778977851794 4.50884303970582 39.717198753080304 0 0 0
366 3 2.201002095219995 3.167201926056225 39.86232415725668 0 0 0
383 3 6.380460229951012 2.306478652578984 39.85048857755133 0 0 0
377 3 7.204775360918289 7.8499888632137385 40.65554354774836 0 0 0
329 5 8.200788048085409 0.722630047387497 44.310115291469735 0 0 0
373 3 6.437500547105426 6.603248416422042 40.57374441596254 0 0 0
344 3 4.34153627824409 6.886722787406341 44.86124496232521 0 0 0
338 5 1.4799866713112608 7.928989263661035 40.07458651643934 0 0 0
1158 3 0.16871016464639235 3.4231453676693215 43.0806855965923 1 0 0
419 3 7.137485605038099 2.550354109727266 45.42610681017423 0 0 0
379 3 4.652825387404386 0.5879225318989768 42.5713892114925 0 0 0
793 3 4.760955768304738 0.29682193175830474 39.99375583430387 0 1 0
376 3 5.8315560962659605 2.860945655512749 45.182660726689264 0 0 0
760 3 1.8251645743099023 0.8954496255743669 40.92478152695296 0 1 0
371 3 1.6739617427295803 2.245570497213358 40.92988513378761 0 0 0
370 3 5.535214301965271 6.495009000895942 41.70258887803068 0 0 0
368 3 2.5718610465761627 9.336135202984938 41.647733706776606 0 0 0
332 3 2.5935838437829912 8.29103147664627 40.705080556347134 0 0 0
365 3 4.7934330928649205 7.933937969956468 44.1818548975962 0 0 0
364 3 7.88307645806981 6.548805561221331 43.28858769955793 0 0 0
363 3 6.5594160455171 2.3128642995067654 42.33893656311485 0 0 0
362 3 8.8452848362356 6.999782057554468 42.38088262528006 0 0 0
381 3 6.933439127273373 9.20204257592636 40.95443417522263 0 0 0
360 3 3.6269892550305807 2.218940421774982 44.65570762889841 0 0 0
359 3 8.074935305363484 2.0782053240569653 44.26256498599 0 0 0
358 3 7.423671680125272 5.30469649569313 42.856218276456474 0 0 0
357 3 5.411014395946921 1.6807894407757358 42.997481260376176 0 0 0
384 3 3.9095423575868473 7.876958992510588 40.525095185285444 0 0 0
355 3 7.869678728571094 2.5542203981027107 42.826248377525125 0 0 0
354 3 0.6523262233096174 4.025739635734601 44.365204583245315 0 0 0
353 3 2.8813603363426123 1.203827805545409 43.934559655294656 0 0 0
352 3 8.823492259188301 3.4060590897826803 42.07603390477669 0 0 0
351 5 5.113043064730267 4.760682480370794 43.334354839008974 0 0 0
350 3 2.78324775282912 3.277797077836 44.20303029335745 0 0 0
349 3 6.009980492632755 5.166940648121027 42.41060523593651 0 0 0
347 5 7.754313565071862 7.0822241504701635 44.52449988457431 0 0 0
346 3 4.465208373072365 7.358184109791022 41.71654971065769 0 0 0
345 3 4.995729430493096 2.2261014734202673 44.30847155937231 0 0 0
330 3 8.53725965958001 7.4699318881254655 41.012779447265615 0 0 0
343 3 2.1876310920951205 2.3064150207920644 43.270444395893 0 0 0
342 3 1.2109732646268963 2.706329282552446 42.31727349618839 0 0 0
341 3 3.395712817276784 9.298252993080876 42.716691222712655 0 0 0
340 3 6.207014371835998 2.997548211073961 41.05901528113714 0 0 0
339 3 2.0004387480074195 4.267825822674515 44.81768352126235 0 0 0
337 3 5.132400250404925 9.169810995572252 45.0314393606415 0 0 0
336 3 8.494666911060955 4.775245676415308 42.001538479242335 0 0 0
335 3 6.991418825580449 9.661104574888647 42.34369879488285 0 0 0
334 3 4.249433037570462 8.227485028978718 42.87273274186559 0 0 0
333 3 9.29008614858388 5.905519056450698 41.53967764732385 0 0 0
331 3 6.192543690219616 4.368240771173824 41.05930345113936 0 0 0
361 5 9.300903046723931 2.5596709720644824 44.75029041820978 0 0 0
416 5 3.0550792457087845 6.670481030638163 45.08539024308292 0 0 0
378 3 6.473603097551003 9.58763360790321 44.95073437600633 0 0 0
380 3 9.381923055724425 6.568039666940355 40.15642299659256 0 0 0
367 5 2.1548343595302355 5.3158688761748945 40.83069296832716 0 0 0
369 3 6.7238800707364526 5.280418150639154 40.04456443770568 0 0 0
374 5 5.1585358597218525 6.208458209923888 45.63348255875833 0 0 0
375 3 6.812632363184521 9.942117580847421 43.66843325603027 0 0 0
795 3 3.6190062054063192 0.08384443964804333 43.55954894056908 0 1 0
390 3 1.1892154379274862 1.3032435473567863 53.54773367205118 0 0 0
387 3 2.123004493085218 1.72616994276195 52.4994370647746 0 0 0
389 5 0.5749196379529403 5.738479964757324 53.19231677841243 0 0 0
418 3 0.5309246252337885 4.415625563359055 53.08375321483886 0 0 0
1175 3 0.47110766049452757 3.5537621868406344 52.02476098148745 1 0 0
404 3 1.7718925413577538 2.9270155015205805 51.73747401417897 0 0 0
388 3 3.0937594352783613 0.7589358689404271 52.06271972641365 0 0 0
421 3 1.6123111135511974 0.50283315599171 54.83564155979989 0 0 0
411 3 2.217728387365733 4.625024223775714 46.19060889779651 0 0 0
402 3 3.791803882351545 3.5568243068127536 50.376295590486876 0 0 0
392 3 5.816605235195401 0.8020758562675195 48.95154610901589 0 0 0
400 3 5.7002046910979365 2.124977994249475 49.589277793866714 0 0 0
399 3 6.2668248217268285 3.219372085430268 48.841519572878866 0 0 0
398 3 4.607655822340971 2.3831990032976673 50.526023107927955 0 0 0
397 3 5.5719714179739865 4.483285825165035 48.95561720188324 0 0 0
396 3 2.394105135601878 3.4137285291824737 50.60181332397866 0 0 0
395 5 6.212366558980805 5.657030722626089 48.77035368698358 0 0 0
394 3 3.866092560810559 1.1929524766524031 50.88405085881123 0 0 0
393 3 1.883914145838087 4.1373748353554864 48.39203687557726 0 0 0
406 3 0.6313233642539394 2.1385741814018715 49.216771973399545 0 0 0
401 3 3.2087726366249187 4.591817612485885 48.223137921548094 0 0 0
408 3 7.214607357575237 3.0933342155778387 47.8489244214851 0 0 0
414 3 0.9300982811342352 0.7233015792444729 49.08290828754333 0 0 0
403 3 4.256885755512223 4.487076514305276 49.290338094422864 0 0 0
415 3 3.469556814730204 0.5980454371024779 49.65735718822684 0 0 0
409 5 3.5303871364927417 8.882235858520385 47.45326744209752 0 0 0
407 3 1.1950047060415465 4.221323236460968 47.12168272703383 0 0 0
405 3 1.633128157129133 3.233950375428996 49.44148449892961 0 0 0
413 5 6.883191414067435 0.4340346511331308 48.25189341101502 0 0 0
1193 5 9.729520906929789 0.6662624584105471 47.636477054831 0 0 0
410 3 3.2586504546274195 4.946737203210613 46.92373206181194 0 0 0
386 5 5.2454356113832095 3.9169431822957312 45.89875810439303 0 0 0
412 3 7.506784058652679 2.8266000271482405 46.713162054946444 0 0 0
1222 3 0.04111500493504924 3.598012286060339 46.76081534618942 1 0 0
417 5 4.348508228605628 9.385108507061872 49.444934234251825 0 0 0
1174 5 0.4263480726054822 3.941753264712753 54.33217397047568 1 0 0
824 3 2.1525652748283224 0.11302778537289802 49.49285821385345 0 1 0
391 3 4.415182824043428 9.746708717858393 48.15894340906079 0 0 0
849 5 5.637894249629037 9.492709768945533 47.701584595851635 0 0 0
382 5 7.373108787801842 9.627534570409564 45.90714122915246 0 0 0
420 5 2.250864255693456 1.4300387532630674 55.73153808527019 0 0 0
422 1 8.30066644622374 18.17582406959815 3.796482046537434 0 0 0
423 1 5.354187803258549 17.218995050026187 3.6294289827628994 0 0 0
424 1 5.039128765847644 17.14553237047011 0.79539183301255 0 0 0
425 1 9.971949530050207 15.628949033732415 2.6905193258337263 0 0 0
426 1 1.1295739962843563 16.152968996385333 2.464239860561012 0 0 0
427 1 2.4579311066787497 18.708588498224753 3.6281998091873326 0 0 0
428 2 1.3091599727442491 17.689768257541377 3.0424383398489496 0 0 0
429 1 8.255007409613848 12.980783780624723 2.6830897882207196 0 0 0
430 1 5.374085292926715 12.503734570284522 3.280611559633538 0 0 0
431 1 4.8110683971966 11.197134668336515 0.40120927748345636 0 0 0
432 1 1.842635412874053 12.252800136818237 0.8010655583819393 0 0 0