(written by ASE)

197 atoms
5 atom types

0.0                      20  xlo xhi
0.0                      20  ylo yhi
0.0                       6  zlo zhi

Atoms # atomic

     1   2      9.2854069262961367        3.26136947500554      3.3597174442866162
     2   1       8.736608077435335      8.3987504824620469      1.2490849102523427
     3   2      0.3732591517421443     0.27942164433195388       1.734010261969722
     4   1      2.6934444327683558      5.2853242988665938      1.6324961255886947
     5   1      4.0375775000920742      7.9933887817115634     0.40296741372959477
     6   1      9.3163837962826364      4.4607182695570629      2.3417012051903399
     7   1       9.178778945804039     0.81869570364117472     0.73854754849909554
     8   1       6.504183747161183      4.2900700398705292     0.89936321450118561
     9   1      4.7729069902266916      4.6453113375258281      3.3990600964714766
    10   1      8.3251891609580237      1.9200744090216895      3.4704351657991204
    11   1     0.12919890821521929      4.2316971014639817      2.7159059908238063
    12   2      2.1995400952029889     0.33955656795378297      3.4634493560563087
    13   2      9.3433889457764394      9.8827071050059132      1.6591246647399025
    14   2      8.1411161752237238      7.8916791012518761      2.6695841702559626
    15   2      9.6414580753907053      5.7881787587026636      3.2131160319603396
    16   2      5.7738181496138763      5.8757448048644889      3.6279572166864504
    17   2       9.935088473276835      7.4372342386905732     0.82017974616740119
    18   2      5.0097013129230294      9.0012705731628113      1.1972707190039031
    19   2      1.0204272265216214      5.3195724374431697      1.8623384920110198
    20   2       2.702130394173154      8.8369391362557863     0.16113083904071956
    21   2      3.4818470266443047      6.6576718735968887      1.2423214630250037
    22   2      2.8106186501471306      4.1402490389302438     0.41760377443433327
    23   2      3.2536286055921293       4.976182525413023      3.0969049182665458
    24   2      8.2427692562692449      1.4120435999830696      1.9379573653530036
    25   2      7.9730597645404018      4.6756181699322266      1.5087546587333236
    26   2      6.6829583117283615      2.7559092103836456     0.36553956057596082
    27   2       5.246403224087147      4.0251242405587977        1.94807483445846
    28   2      6.0348388737876357     0.16079591417630362     0.48238661640916192
    29   2     0.99659674402070575      3.6572290051235394      3.9157362976256915
    30   1      9.1021132963994731      7.2148952975525704      3.8997969928143874
    31   2       6.880357743379971      2.1392661007679417      4.0582764120700539
    32   2      9.1664018392813471      1.0177304211377209      4.5194087501582771
    33   2      6.0278574236905902      8.3276671079735003      4.4807083547338031
    34   2      4.4994533294367294       1.160505217951975      4.5086973995455359
    35   1      3.0005923053540915     0.74585033785803501      4.8248183967996034
    36   5      3.8202589932874931      7.1090026939755386      4.5534143969444267
    37   1        6.26837822793465      9.9329171979395792      4.5435103154404892
    38   1      9.8365420811756881     0.42238710945590208      5.8759386814306431
    39   1       6.371270578459197      6.7744317691794054      4.8466539131320845
    40   3      0.6148463708452826      6.0825531068675565      5.9948410904404215
    41   5      9.9086281622116399      6.4471957585660444      5.9311421949877765
    42   1      3.1202624556614267      7.5499592891727785      5.9003841060838136
    43   2      2.7165438882853472      9.1299356095521649      5.9530529555470935
    44   2      8.0047116369736759      6.7071722000015832      5.0332595660242836
    45   2      2.3541071610332347      2.0720961080614568      5.5205144396794772
    46   2     0.44093634015793665      8.6139971347987032      5.8690731880028189
    47   2      0.1845188401011946      4.5312089549534011      5.9993620700666552
    48   1      1.3312963137385836      9.8740856704630264      5.9960037197194929
    49   5      8.3119650558011688      4.4891702552800119      5.9984749756885369
    50   2      5.0161509069100338      3.7062428922410851      4.7264204167809618
    51   1      1.0284997855623863      3.0762246614281152      5.3931623252775474
    52   2      1.7832108627146703      6.6369018150421377      5.9993107892876694
    53   1      5.5759687872290566      2.2693301122530918      4.9453579199060629
    54   2      5.8464334541790652      5.7133246216681366      5.9938615287379271
    55   1      7.0631888376871066      18.863831757395722     0.69672962366884761
    56   1      7.1055888553544495      16.697280567386827      2.6741721041120492
    57   2      2.3565759949494964      12.563509955967032     0.33639235392528377
    58   1     0.78613803031824303      19.583503145031798      3.1870939976499528
    59   1     0.84092414757929412      16.738797151501021      1.6802160116861806
    60   1      3.5087832059977773      16.024445001040775      1.1637547398607744
    61   1      5.6017358136945985      10.547769465288789        1.49926750612223
    62   1      3.8960654153266594      13.086699504414145     0.47096190063914273
    63   2      4.6026367966837753      11.839857962292069      1.2391925588518262
    64   2      8.5832823176828974      19.372110869949736     0.52148533561114263
    65   2      8.6746421933020947      16.653444443689146      3.1722329563495677
    66   2      6.7335041075400515      18.261046088046019      2.1669245212365453
    67   2      6.8241415622899471      15.779828154857247      1.4003961553141728
    68   2     0.77314714556879938      15.270040458051678      2.4370729752088423
    69   2      0.8079591060419169       17.97414205089342      2.7910458067994952
    70   2      2.0436677906043563      16.570442265665363     0.58805931187269778
    71   2       3.862790729480686      16.757862849089882      2.6367570335057664
    72   2      6.8630292367366872      10.970239724073645     0.50113373677226036
    73   2      6.2856933630251932      10.479182854238871       2.992712023791924
    74   2       3.703127147197987      14.379362777557514      1.3975501181259311
    75   2      6.1776018496470897      16.211266689877892      3.9324538289217266
    76   1      4.5956342826621928      16.405128522602148      4.0579223394886554
    77   2      3.5419568561028401      15.208058201577963      4.5832082912973746
    78   2      2.8714486890646294      19.461652689802026      5.8354213818879552
    79   1      6.3612405964269048      17.799867041778835      5.9973938369105282
    80   1      3.0356713675378622      14.135163216941837      5.7072548105362175
    81   2      1.7251347219638224      17.003694963961209      5.9991801894152736
    82   2      8.9039019906104127      12.597188154633642      5.2949744041461173
    83   1      2.9826927561414625      17.907616235746339      5.9949975331275258
    84   2      4.3524922064349063      17.571478597408429      5.1453376985430781
    85   1      7.7690511733550682      11.804630843209372      5.9702397365005622
    86   2      4.9210229569893578      10.453227882034051       5.342871465330596
    87   2      9.9727358775539603       18.83458686061401      5.5798782566725338
    88   3     0.30509905794030701      16.998081542022305      5.9958535927046608
    89   2      3.8413130695026299      12.728019499866186      5.3911478312937158
    90   1     0.42136146122437168      12.578374195529246      5.1789914067581657
    91   2      6.4527108931715249      12.603489207225245       5.804858347774176
    92   2      7.9513060690980142       17.26668084115801      5.9996239454558431
    93   1      4.9995350251653816      11.903017949589019      5.9987342281743112
    94   2      1.1824881108441216      11.110064984862511      5.0592622403228669
    95   2      1.4368423989530577      13.774554853801959       5.769056867589005
    96   5      6.4886981281376439      19.312441943024734      5.9993041043165451
    97   2      7.5484533311547004      10.305738981413535       5.544886227791066
    98   1       16.22367078735148      9.4316326513311672     0.77422407076893762
    99   2      13.116481235382551       3.936854074763021     0.89272937010235154
   100   2      14.737393970574921      3.8103838906877101       3.269584383910221
   101   1      11.902666636409077      5.0027891041256733      1.0189639244249484
   102   1      16.389710198364046      6.5079044270004047      1.5450739891295733
   103   1      19.426323676709167      1.4492892211234301      1.1763603492036907
   104   1      13.998401274913439      4.7473621936147703      2.0686469183686498
   105   1      12.236020257054395     0.60693340132010554        1.00644998041912
   106   2      17.837547987290243      9.3789303690846335     0.35656621401837896
   107   2      16.803276578767782      6.4567913972629842      3.1485333189529356
   108   2      19.425102600961861       7.547110647011845        3.53982347294221
   109   2      15.211020779846855      5.4471854423465285      1.3497273346192209
   110   2       17.56353968892908      5.9986682326545289     0.53199347261947949
   111   2      10.679510070417768      1.0350003568521673      1.3301665498598894
   112   2      13.275477710044967     0.79951705647624327      2.2416096817808437
   113   2      15.861174689954805      8.0294137771434997      1.3758415925806418
   114   2      12.750384081324997      5.8266721624134101      2.2669236301729612
   115   2      18.858520283103225      4.9709561421394968      3.5475578732815372
   116   2       10.59490090966502      4.2202552339044663      1.3406653681514236
   117   2      17.889472533399317      0.9005741476090674      1.5301198223129191
   118   2      19.578291165049624      2.9536975338515576      1.8532380788888823
   119   1      18.290339479758934       6.385731204699356       3.918564525786941
   120   2        15.2920818216566     0.64671020474997865      4.1021445456742711
   121   1      11.337662821825049      9.4003588850505793       4.463535631156347
   122   2      10.315527313603654      8.1535246362204141      4.4938345742012622
   123   2      12.148355153448291      6.3135808080817712      5.1609762376318242
   124   2      15.267198034586126      9.3181139561473163      4.5367980275278796
   125   2      18.181208780307198      6.9249905803679823       5.553607871614842
   126   2       14.54117644054044      4.9192730862022813      5.8764295776823952
   127   2      12.706935466702634      8.9281318694268705       5.044259505711449
   128   1      19.106921401647998     0.82075720898612758      5.5815010339200635
   129   2       14.29192182884151      7.3772796555393159      5.9973508157792725
   130   1      16.009037447718551      1.2506248658200578      5.4463896049573508
   131   2      19.573196995579469      2.3404491255130249      5.3893974303634282
   132   1      13.489057533246092      5.9930984196356576      5.9997188969174395
   133   1      11.947798668735107      2.4997943069432615      5.9990366355871307
   134   2      15.950664219935142      2.8284780946460337      5.3151601408170714
   135   2      11.124057282667952      3.9112624724045286      5.9232460316213942
   136   1      14.180891796441966      8.9255440895052089      5.7118628032550953
   137   1      14.555249542004082      3.6671672819949519      4.8490485441214881
   138   2      17.504548081684614     0.57925206543134866      5.5621232535982461
   139   1      19.103680626886078      8.3282153200244338      5.0002303182809849
   140   2      13.247924114027153      2.7585888430957572      5.0025169988930331
   141   2      18.354294256922159       9.742016139029035      5.0138007196513188
   142   2      11.502734231859403      1.0432606841355678      5.6656582509549258
   143   1      11.074246569512642      5.5069610227124457      5.9977749947470773
   144   1      17.301889773709583      19.331763005002198      1.5643076140716587
   145   1      17.404404859658086      16.734056385374426      3.1302578071680642
   146   1      14.488123820341441      19.896877162397651      2.8791327453834938
   147   1      10.224356605958988      16.254594014470946      3.5616406948198076
   148   1       12.92172367307516      17.213513391179418      2.9184309660550731
   149   1      12.632632525093355      17.680981026245114     0.13174783447259131
   150   1       15.61095231781554      10.666875570906743      3.6278682116915348
   151   1      19.369422734718619      14.579258027350505      2.9376260337097264
   152   1       16.79471225783016      14.687775694226417      1.1261731808428408
   153   1      10.896461186855202      10.632899133884271      1.7578278233487445
   154   1      11.458639854014844      13.353238897818724       2.731140402761163
   155   1      14.459625150634343      13.296200606122772       2.856297814074825
   156   2      14.415224498602711      11.728849597550946      3.3041735108219505
   157   2      10.741292496525922      12.238515309183102      1.8061136786357821
   158   2      17.818750946301655      18.282943538595941      2.7847742524562129
   159   2      19.441585779802622      16.921172091115732     0.81285305523601181
   160   2      11.499300618849276      10.132613491718717     0.31644065602456806
   161   2      17.671965593161516      18.675530080447597     0.11541714324336994
   162   2      15.691205683965253      19.466834273761883       1.829974255547441
   163   2      16.498197304864014      16.119238352204842      1.8897989673794413
   164   2      10.503697310714987      14.742516527445098      2.8408690459677146
   165   2      12.066538491370125       19.08616698356288     0.65060469963631107
   166   2      13.719621708378105      18.527881346459395      3.3761915167572063
   167   2      11.207097816591956      17.371887884207968      2.9242251890162905
   168   2       13.26475915061474      16.767887445208856      1.3353588266342058
   169   2      16.165462757211479      10.395316950177788      2.0827751377858874
   170   2      11.750453143894628      10.102157933776368      3.0160625753525565
   171   2      13.015970445544278       13.77392551169434      2.1958256044945195
   172   2      19.904574356646727      11.144670957209808     0.41070534863334274
   173   2      15.522718676467075      13.639886861759596      1.6097066309865546
   174   2      18.187259936565528      14.045048781414835      1.7307217271710265
   175   2      18.680779572566127      15.862912989411031      3.6630734053756129
   176   2      19.760268670749703      13.211768710571281      3.7376368706905296
   177   2      13.047569663564165      16.059483202686845        3.99433097220275
   178   2      11.358219467042819      12.722008062229184      4.1957395859996716
   179   2      14.706592350096699      14.039488732265992      4.2807744695596099
   180   2      16.502563820128138      16.843949818730099      4.4681839794402798
   181   2      19.748250279026834      19.933549759309553      4.3983031028313881
   182   1      14.431983411260209      19.801696518743469      5.7795778730757803
   183   2      16.693731937446397      11.521161248435753      4.5535600444161481
   184   1      18.119916895427028      14.235141283459395      5.9450524882585194
   185   1      13.823115400015755      15.136599626229597       5.111191406156629
   186   2      10.133212655442474      16.301674810152992      5.2534811611159862
   187   1      16.160332807623842      16.710438178570943      5.9981760125882548
   188   2      15.612674040892671      18.340518761195785      5.9955018155785256
   189   5      16.792635431722765      13.428391585037787      5.9966735399905673
   190   5      13.258761430243055      11.559776014283976      5.5157540127997535
   191   2      18.991804967508298      12.285029833729482      5.9674156842194828
   192   1      10.492094057714032      12.161536841814943       5.400074595646573
   193   2      12.602885081223381      14.506405554172126      5.9989308202111475
   194   5      12.978986803810297      18.938536351667818      5.9820268117905373
   195   1      17.766672360243408       11.08408212516794       5.733933010266882
   196   2      10.664093630523588      10.566715248708805      5.4038420859531113
   197   2      14.815220456086227      15.945055367497796      5.9987010538294454


Velocities

     1                       0                       0                       0
     2                       0                       0                       0
     3                       0                       0                       0
     4                       0                       0                       0
     5                       0                       0                       0
     6                       0                       0                       0
     7                       0                       0                       0
     8                       0                       0                       0
     9                       0                       0                       0
    10                       0                       0                       0
    11                       0                       0                       0
    12                       0                       0                       0
    13                       0                       0                       0
    14                       0                       0                       0
    15                       0                       0                       0
    16                       0                       0                       0
    17                       0                       0                       0
    18                       0                       0                       0
    19                       0                       0                       0
    20                       0                       0                       0
    21                       0                       0                       0
    22                       0                       0                       0
    23                       0                       0                       0
    24                       0                       0                       0
    25                       0                       0                       0
    26                       0                       0                       0
    27                       0                       0                       0
    28                       0                       0                       0
    29                       0                       0                       0
    30                       0                       0                       0
    31                       0                       0                       0
    32                       0                       0                       0
    33                       0                       0                       0
    34                       0                       0                       0
    35                       0                       0                       0
    36                       0                       0                       0
    37                       0                       0                       0
    38                       0                       0                       0
    39                       0                       0                       0
    40                       0                       0                       0
    41                       0                       0                       0
    42                       0                       0                       0
    43                       0                       0                       0
    44                       0                       0                       0
    45                       0                       0                       0
    46                       0                       0                       0
    47                       0                       0                       0
    48                       0                       0                       0
    49                       0                       0                       0
    50                       0                       0                       0
    51                       0                       0                       0
    52                       0                       0                       0
    53                       0                       0                       0
    54                       0                       0                       0
    55                       0                       0                       0
    56                       0                       0                       0
    57                       0                       0                       0
    58                       0                       0                       0
    59                       0                       0                       0
    60                       0                       0                       0
    61                       0                       0                       0
    62                       0                       0                       0
    63                       0                       0                       0
    64                       0                       0                       0
    65                       0                       0                       0
    66                       0                       0                       0
    67                       0                       0                       0
    68                       0                       0                       0
    69                       0                       0                       0
    70                       0                       0                       0
    71                       0                       0                       0
    72                       0                       0                       0
    73                       0                       0                       0
    74                       0                       0                       0
    75                       0                       0                       0
    76                       0                       0                       0
    77                       0                       0                       0
    78                       0                       0                       0
    79                       0                       0                       0
    80                       0                       0                       0
    81                       0                       0                       0
    82                       0                       0                       0
    83                       0                       0                       0
    84                       0                       0                       0
    85                       0                       0                       0
    86                       0                       0                       0
    87                       0                       0                       0
    88                       0                       0                       0
    89                       0                       0                       0
    90                       0                       0                       0
    91                       0                       0                       0
    92                       0                       0                       0
    93                       0                       0                       0
    94                       0                       0                       0
    95                       0                       0                       0
    96                       0                       0                       0
    97                       0                       0                       0
    98                       0                       0                       0
    99                       0                       0                       0
   100                       0                       0                       0
   101                       0                       0                       0
   102                       0                       0                       0
   103                       0                       0                       0
   104                       0                       0                       0
   105                       0                       0                       0
   106                       0                       0                       0
   107                       0                       0                       0
   108                       0                       0                       0
   109                       0                       0                       0
   110                       0                       0                       0
   111                       0                       0                       0
   112                       0                       0                       0
   113                       0                       0                       0
   114                       0                       0                       0
   115                       0                       0                       0
   116                       0                       0                       0
   117                       0                       0                       0
   118                       0                       0                       0
   119                       0                       0                       0
   120                       0                       0                       0
   121                       0                       0                       0
   122                       0                       0                       0
   123                       0                       0                       0
   124                       0                       0                       0
   125                       0                       0                       0
   126                       0                       0                       0
   127                       0                       0                       0
   128                       0                       0                       0
   129                       0                       0                       0
   130                       0                       0                       0
   131                       0                       0                       0
   132                       0                       0                       0
   133                       0                       0                       0
   134                       0                       0                       0
   135                       0                       0                       0
   136                       0                       0                       0
   137                       0                       0                       0
   138                       0                       0                       0
   139                       0                       0                       0
   140                       0                       0                       0
   141                       0                       0                       0
   142                       0                       0                       0
   143                       0                       0                       0
   144                       0                       0                       0
   145                       0                       0                       0
   146                       0                       0                       0
   147                       0                       0                       0
   148                       0                       0                       0
   149                       0                       0                       0
   150                       0                       0                       0
   151                       0                       0                       0
   152                       0                       0                       0
   153                       0                       0                       0
   154                       0                       0                       0
   155                       0                       0                       0
   156                       0                       0                       0
   157                       0                       0                       0
   158                       0                       0                       0
   159                       0                       0                       0
   160                       0                       0                       0
   161                       0                       0                       0
   162                       0                       0                       0
   163                       0                       0                       0
   164                       0                       0                       0
   165                       0                       0                       0
   166                       0                       0                       0
   167                       0                       0                       0
   168                       0                       0                       0
   169                       0                       0                       0
   170                       0                       0                       0