LAMMPS data file via write_data, version 2 Aug 2023, timestep = 637, units = metal

795 atoms
5 atom types

0 20 xlo xhi
0 20 ylo yhi
0 200 zlo zhi
0 0 0 xy xz yz

Masses

1 28.0855
2 15.999
3 12.011
4 1.00784
5 18.998

Atoms # atomic

1 2 1.0225096042862152 4.151324621561566 1.9516675527014236 0 0 0
52 2 3.7172249922936706 1.3461856773244572 3.0699694623085785 0 0 0
431 2 2.2874549126576107 3.246119492534054 4.063218213108188 1 0 0
80 1 1.0095201835879877 4.132855949629239 3.606967915748004 0 0 0
7 1 1.0284997855623863 3.0762246614281152 0.706059944649307 0 0 0
351 2 2.3541071610332347 2.072096108061457 0.833412059051237 0 0 0
574 1 3.0005923053540915 0.745850337858035 0.13771601617136484 0 0 0
679 2 5.016150906910034 3.706242892241085 0.039318036152719595 0 0 0
179 1 5.296626781739867 0.9174698025738726 2.957465733960036 0 0 0
784 2 9.046147613406323 0.6252239024489885 2.6360886415953493 0 1 0
475 1 5.575968787229057 2.269330112253092 0.25825553927782585 0 0 0
413 2 6.062880610748525 1.8477936345388457 1.8219515728520315 0 0 0
683 1 9.836542081175688 0.4223871094559021 1.1888363008024054 0 0 0
180 2 3.5357230863799867 1.6129642404533286 5.655895698454498 0 0 0
677 1 2.66986016097563 1.6992710458869191 4.279207092081031 0 0 0
34 2 1.4175474581450351 0.667047379713266 4.31005308737374 1 0 0
57 2 0.11684490309506054 3.181729905794957 6.680031333564021 1 0 0
745 1 6.6149900293879735 4.672480653291154 5.331366454761976 0 0 0
59 1 5.1404201937264515 1.946571730111912 5.724959208750709 0 0 0
691 2 8.132708952603538 4.084732407064842 5.230584490052797 0 0 0
18 2 5.899186122184336 1.1493754766648334 4.480674938303979 0 0 0
756 2 5.522060928959828 1.5549198408430074 7.256628372113037 0 0 0
719 2 5.511935176414141 3.5142891191974246 5.578594944740948 0 0 0
716 1 9.692636654705243 3.627682529293874 5.0931652880386995 0 0 0
70 2 9.782647751093226 2.0367027903890444 4.795115029696892 0 0 0
26 1 9.586398203144139 0.5395496378774218 4.185195107289244 0 0 0
239 2 2.393306922210186 0.0754681638371196 17.3315761298479 0 1 0
369 2 0.31682433516740777 2.080671137438731 9.046173580915498 0 0 0
209 1 0.1127029497213815 4.617834938816199 10.759752938405589 0 0 0
714 2 3.487969256704115 4.453028779248054 11.170683020592751 0 0 0
237 2 0.38952523146292606 4.668378274534081 9.132245974755469 0 1 0
87 1 4.162769054477487 4.761730029615241 9.698766574171707 0 0 0
739 2 3.7685058554276463 0.9013106415941085 9.213294900205966 -1 0 0
336 2 4.130597850613011 3.4400512606699065 8.729950435904934 0 0 0
117 2 1.08624568152372 3.4716546665147296 11.397544234051523 0 1 0
50 2 3.3467325654977467 1.8689444518640175 11.840128076398132 0 0 0
340 1 2.6087364422852604 3.350383959394199 11.998248085795503 0 0 0
58 2 8.344593146502328 4.789819069022235 10.402333343300988 0 0 0
342 2 6.1509586886075205 2.057636167722171 9.691700394497493 0 0 0
192 2 7.337850861146596 1.1743691730011128 11.793545625906608 0 0 0
195 1 7.523533597226486 1.3836910775671818 10.162989399877944 0 0 0
388 2 9.588687330824701 3.3337038804041894 12.191378310941726 0 0 0
382 2 8.849326518848217 2.2656923004196154 9.852090979604695 0 0 0
60 1 9.458868536664886 3.6013055197572563 10.599198453909281 0 0 0
348 1 4.861332747182514 1.9832970666585303 8.692194465784326 0 0 0
508 2 1.9938141238069484 0.9979015121034578 13.824260174204642 0 0 0
592 1 9.192465460692787 2.548014354485681 29.167112080536466 0 0 0
540 2 4.690877256224317 0.983202154990729 14.03128411989019 0 0 0
295 1 3.4237239597226656 0.7067948651090299 13.016896392802893 0 0 0
366 1 1.4817169708446365 2.456864729568472 14.462689981646424 0 0 0
380 2 2.4091605024801668 3.5562280299159275 13.630315820924949 0 0 0
367 2 4.104804071119035 2.1659333079244116 16.806882979072846 0 1 0
339 2 1.666141165204905 2.3631985771819544 16.083353502095253 0 0 0
151 1 5.747129505059519 0.14193726672156193 14.947094319203627 0 0 0
354 1 6.839601024236391 4.655298208408514 14.03990054283345 0 0 0
310 1 9.260479464167071 2.79976236315221 13.678325646858639 0 0 0
304 2 9.253912909446013 1.1250573437231506 13.594691148243315 0 0 0
198 2 7.756913602847072 3.2861660064597116 14.159832915974727 0 0 0
272 2 5.407266224053698 4.602052738904915 14.876414478974828 0 -1 0
408 1 8.049852002551017 0.2805690376196475 12.929313603503187 0 0 0
178 2 6.304688203236476 1.0262506054135878 16.200648810528563 0 0 0
678 2 7.7711043870623095 2.1842490143257685 30.20269008120871 0 0 0
392 2 9.719160672872352 0.5943312997940334 20.22678348246845 0 1 0
229 2 2.0394098780159875 4.889203596311199 18.635107016603527 1 0 0
171 2 1.7452372039415929 3.567749395508102 20.968375135857297 1 0 0
327 1 1.4968632856662731 3.5142176519594654 19.36133389448549 0 0 0
333 2 2.3161718650346437 2.265439180430906 18.726990871808884 0 0 0
297 1 2.606097723448499 1.6874218791710431 17.234622185829963 0 0 0
405 2 5.735921011125739 1.8694800132721365 18.942192835624112 0 0 0
275 1 9.158607513352822 1.0974482625019097 18.790873846128758 0 0 0
446 1 5.654418780894227 2.0887520827535635 17.267364992799322 0 0 0
409 1 6.856392380352356 3.1303846436003435 19.01971791749105 0 0 0
415 2 6.665496405991158 4.319055755655223 20.11389866558359 0 0 0
587 2 8.3150490569309 2.4362351981748587 19.18291201147651 0 0 0
384 2 6.636172980072289 3.441951893838213 17.38546448356818 0 1 0
401 1 1.4184736281201533 4.021599828024687 22.502829989726738 0 0 0
299 1 3.423141962275038 3.6427035219321295 24.7705788356912 0 0 0
294 2 2.335207641773403 3.2784950806704 23.63294524190361 0 0 0
205 2 4.49519270502042 4.5691289979533405 23.977857919283544 0 0 0
472 2 4.085427004492871 2.2939077407049253 25.415824860795993 0 0 0
303 2 8.124012275806583 1.8332859974289288 22.240426850973343 0 0 0
416 1 9.29804700610899 0.7909271914223958 21.779651556247313 0 0 0
423 1 7.82334038357424 2.3562912502292885 23.76471681682959 0 0 0
486 2 7.928704358065981 3.9843955700444766 23.70439737628709 0 0 0
571 1 5.671862574762852 1.948339977198702 25.62322796025184 0 0 0
581 1 6.663698795350994 4.844516943696963 26.53656859922757 0 0 0
620 2 6.327023503702286 1.8306059923845652 24.125260254282335 0 0 0
594 2 8.868467353381357 1.8805814569738766 24.9265995296655 0 0 0
576 2 5.923242999442727 0.5415682694369961 26.430052897044025 0 0 0
732 2 9.272307301949475 4.192214927704544 29.262486082115487 -1 0 0
702 2 1.922084492971476 3.4954084248613864 28.509474481022846 0 0 0
404 1 0.25816534291637744 3.565208008602296 28.329614868223118 0 0 0
450 1 2.2582469773905056 4.809028885193637 27.53305286397057 0 0 0
632 2 2.809172611511863 4.499550765643512 26.04552916733135 1 0 0
551 2 8.605368097019921 2.116580639235546 27.682134782306072 0 0 0
181 2 8.180279386369927 2.4184633809144964 31.45075064672604 0 0 0
109 2 6.567250972534425 4.9313637636948995 12.454270158208427 0 0 0
671 2 6.395761488876128 3.2480551224145273 26.329670310965398 0 0 0
488 1 9.163940336380477 1.2433522265922408 26.410211892995132 0 0 0
650 1 9.121484807953891 4.921900386359857 23.092420645539484 0 0 0
621 1 3.3127095140451024 8.48646947383639 3.453031457219117 0 0 0
603 2 4.152154769271772 7.099476664521123 3.2553409190670917 0 0 0
754 2 2.8278737381816708 9.143339979148191 2.0032319548724 0 0 0
126 2 0.44093634015793665 8.613997134798703 1.181970807374578 0 0 0
12 1 1.419805389588792 9.861345870548979 1.5634363379124026 0 0 0
98 2 8.004711636973676 6.707172200001583 0.34615718539604307 0 0 0
750 1 6.371270578459197 6.774431769179405 0.15955153250383994 0 0 0
54 2 5.763483253160354 6.12910981947222 1.4718826355032268 0 0 0
96 2 6.140381173037825 5.35656776050378 3.9394668501889383 0 0 0
76 2 6.751001282658909 7.799276690793847 3.2068287563396627 -1 0 0
755 1 5.677964017096585 6.597511532891006 3.0192711433851334 0 0 0
697 2 8.424179412552055 9.570657398138845 4.004103900133026 0 -1 0
241 2 2.001794045417239 8.129209998191792 4.35116292798129 0 0 0
254 1 1.3586280115858327 6.891445894659053 5.201204526364316 0 0 0
684 2 2.283509438699498 6.5982650185588785 6.529596416787312 0 -1 0
639 2 4.272219591965362 9.518103943980268 4.2977035459460184 0 0 0
647 2 1.2649830680790621 5.6211736875304785 4.195998566896213 0 0 0
247 2 0.450111539163242 9.672685526955448 7.166147997706837 0 0 0
46 2 4.657021163414869 7.582404151862967 7.250265181188686 0 0 0
723 1 9.004884696257617 8.392163600528626 29.18509562999422 0 0 0
738 1 3.177536751414991 7.134315356064533 7.796163149970872 0 0 0
95 2 2.4192221319161336 8.42818121371982 8.488264659341668 0 0 0
211 2 6.795689081575458 8.285855423515176 5.796551140443554 0 0 0
218 1 6.2412376218413 7.298760651020992 6.978300331578098 0 0 0
97 1 7.710796310987585 8.21282540330422 4.445465135792869 0 0 0
90 2 6.514880818824937 5.7430877143827574 6.556804364375825 0 0 0
89 2 8.962402217303357 7.170941252076478 4.672065320503971 0 0 0
127 2 7.081669323223766 7.601951949080407 8.321759310087469 0 0 0
712 1 1.0590092662361479 9.314240913640502 8.642751069187902 0 0 0
575 1 4.6523002397223925 6.547326633559386 27.96023078273981 0 0 0
212 2 0.19939220214544667 5.999799034102545 11.658587974404185 0 0 0
45 2 3.3794112640620666 5.970343122895313 8.928556567006217 0 0 0
91 2 5.725341437057644 5.136227398868293 9.948289520204124 0 0 0
256 2 7.130542524863001 7.098477230494935 10.935493889339794 0 0 0
85 2 7.683901066585644 9.588646360588399 9.959702479736766 0 0 0
219 1 7.800948241077763 7.966623038993504 9.717973557549843 0 0 0
220 2 9.358879067363613 9.69862661929037 11.880033929127231 0 0 0
749 2 9.377655708202479 7.563116119119381 9.703982991419258 0 0 0
125 1 6.9489763944025995 5.469423288513152 10.961558424757154 0 0 0
347 2 2.919941957053231 5.679652082699057 16.074267648153725 0 0 0
217 1 4.603909759922563 5.605931524188014 15.911566557965212 0 0 0
742 2 7.6005469002479655 8.970758587818803 29.869196620631715 0 0 0
752 1 9.792665717412158 9.233302948423457 13.370382380716148 0 0 0
383 2 7.708292216424701 5.852066241432569 14.665290913978698 0 0 0
273 2 9.290043287975212 7.759645108320857 13.835094580978444 0 -1 0
350 1 8.463117092553675 7.195547736780062 15.12233364303405 0 0 0
182 2 7.411461530710433 8.365226933000072 15.546202747492652 0 0 0
216 2 9.390347001117176 6.7620196760980145 16.392487694771035 0 0 0
88 2 5.094643041465465 9.74180979405476 15.577345480494383 0 0 0
345 2 5.101134283233715 7.122975402859202 15.562951613437088 0 0 0
215 1 5.897339208886909 8.418207575176137 16.146707055087944 0 0 0
644 1 2.355006493317837 8.361823994174001 19.266633143545967 0 0 0
441 2 4.690157198815293 5.255637761409683 17.569975398761013 0 0 0
617 2 3.1408828155538817 9.785955702258473 19.53083338727921 0 0 0
470 1 3.098668241246958 5.7591083777809615 17.74826079362034 0 0 0
376 2 1.05279217967083 8.764859996833492 18.387594062799767 0 0 0
445 2 2.065498772609052 7.599579131336864 20.67679881076701 0 0 0
360 2 3.1528715225030575 7.281235119402001 18.344916477294557 1 0 0
467 1 6.683400843675492 8.355296346791297 19.287972771678774 0 0 0
378 2 7.945273021511261 9.395686818018184 19.294072931822747 0 0 0
358 2 5.507629799502881 9.02457729168313 20.20272571589097 1 0 0
452 2 7.057502693078691 6.928827632516356 20.000833976812693 0 0 0
308 2 6.078530697316326 8.25637641272041 17.76654009852499 0 0 0
309 2 1.7063591602682617 5.647030429937797 22.565871137619194 1 0 0
298 1 1.264174300450627 7.124458890877237 22.009142612468114 0 0 0
466 2 1.4503127138509848 8.32476792444973 23.079163624001513 0 0 0
709 2 5.600866608932073 5.26464566546545 27.722340337703876 0 0 0
542 2 4.622207591344148 7.2748671323951015 24.012127031611623 0 -1 0
547 1 1.346719579281279 9.006764997967192 24.545719265836176 0 -1 0
509 1 7.08061507915804 5.640731824611657 21.017732153638576 0 0 0
614 2 8.601462622494804 5.42458125434508 21.61615371012077 0 0 0
471 2 6.120183257431223 5.856170527637889 22.344084207976653 0 0 0
344 1 5.4698922922575575 5.861456753515199 23.855223143602412 0 0 0
426 2 9.406650101361977 6.214333904128137 24.02218926950833 0 0 0
496 2 4.572643086845763 7.411350987620292 26.624725594316118 0 0 0
128 1 6.491304270264151 8.821602313803915 28.630696175961713 0 0 0
107 2 9.79202150804388 7.8151302296626035 26.039120611397827 0 0 0
604 2 2.4470144403269267 8.184866131366977 25.423199696062763 0 0 0
463 1 4.0720551400980245 8.135098334200116 25.28964419954812 0 0 0
251 2 4.704513957752905 9.631336369572946 25.348603064490703 0 0 0
657 2 7.904162853801092 8.350520727514002 27.648071848154824 0 0 0
758 1 8.585445548657411 8.848898405957728 26.191987558025364 0 0 0
640 2 6.461374729048806 5.744692610422176 25.168658372495724 0 0 0
593 2 9.319856032350526 6.808990434550708 29.141080878178936 0 0 0
724 2 5.420438296537443 7.637689898033645 28.96568602783053 0 0 0
744 2 7.53247975258014 8.810731259218567 24.954091664152223 0 0 0
582 2 8.10154444420765 5.298749846382586 27.148757100885195 0 0 0
718 1 9.34354690686989 5.415269556269634 28.200448962869306 0 0 0
772 2 3.1547062599476905 5.94163620987996 28.299057716588848 0 0 0
737 2 0.5673664973811752 5.0492988135147066 27.307809838988135 0 0 0
735 1 3.035671367537862 14.135163216941837 1.0201524299079738 0 -1 0
699 2 1.4368423989530585 13.774554853801959 1.0819544869607622 1 -1 0
55 1 1.0591200517358512 11.563907445358305 4.2523782189079995 0 -1 0
782 2 3.84131306950263 12.728019499866186 0.7040454506654719 0 0 0
770 2 1.1824881108441216 11.110064984862511 0.3721598596946275 0 0 0
743 2 0.9808982926658649 13.142794753008367 3.8622881821931623 0 0 0
666 1 0.4213614612243721 12.578374195529246 0.4918890261299232 1 -1 0
606 2 0.9163403631776458 10.639304908241932 2.9222996011962086 0 0 0
670 2 3.842235956226539 14.727066641067978 2.32864545632209 0 -1 0
764 2 4.265185798252496 11.827031223542086 3.074189282513373 0 0 0
778 1 4.937949289987541 11.858604788181808 1.5492520342342562 0 0 0
765 2 4.921022956989358 10.453227882034051 0.6557690847023561 0 -1 0
546 2 5.925677101169887 10.053671947991106 27.75043387111807 0 -1 0
130 2 8.903901990610413 12.597188154633642 0.6078720235178774 0 0 0
790 2 8.58820234003527 11.910791162497569 3.0903166298203586 0 0 0
787 1 7.824401170632851 11.759581013413436 1.6160365652800612 0 0 0
118 2 7.5484533311547 10.305738981413535 0.8577838471628259 0 -1 0
753 2 6.435441166268094 12.561634134528587 1.7793070762569845 0 0 0
175 1 4.049369962148121 11.12580259581783 4.523215913682421 0 -1 0
37 2 2.489262472607821 11.331386710156078 5.004522795599142 0 -1 0
32 2 8.820544809937946 11.349794095503539 5.809312706288637 0 -1 0
160 2 9.863855575414098 13.720460703927454 5.737408784229309 0 -1 0
47 2 5.566914482449285 13.896723790640879 4.430261665129876 0 -1 0
123 2 5.024801091982648 11.749944883791594 5.694297405785747 0 0 0
193 1 5.70051398919898 13.242138710952972 5.916879159657055 0 -1 0
695 1 9.188841258322734 10.964131654674773 4.267466010165185 0 -1 0
786 2 4.99772648423307 14.03911320285646 7.149843530611341 0 -1 0
29 1 8.786165988607776 12.79909124786948 6.531110298361447 0 -1 0
67 2 7.252871955483582 13.292928184906687 6.391082204997396 0 -1 0
512 1 5.502539422101387 10.716781150631387 26.27619342193457 0 0 0
104 2 9.256976415512153 12.772618951492145 8.075167903414066 0 -1 0
234 2 1.5166327244408464 13.368385625408406 9.145764055889098 0 0 0
258 2 0.2599183659091531 14.534021342307328 12.39713444421854 1 0 0
248 1 0.43837869923665845 12.160574206635584 9.235264652808416 0 0 0
177 2 1.258160567838017 10.742115425725045 9.44612741759346 0 0 0
191 1 9.722790669761409 13.100098039675128 9.595217766445163 0 -1 0
133 2 8.949447090942721 12.030572842056486 10.578237216955012 0 0 0
169 2 9.091788581476097 14.553496938147177 10.043688732622782 0 -1 0
120 1 9.01715938383415 10.40404048287315 10.457015765498472 0 0 0
240 2 5.54737572780703 13.65344582212977 11.87240586713677 0 0 0
287 2 2.9391461734007382 11.346036525410844 14.89578160480874 1 -1 0
391 2 0.9551048903592864 13.209765513413231 14.458735306104572 1 -1 0
236 1 4.566972618702046 11.213284990666084 15.065107872824946 0 0 0
396 2 0.4390173993584907 11.001402436731722 15.532393313523707 1 0 0
260 1 1.6095716365195125 12.119973836732054 15.482847862727937 1 0 0
291 2 7.870377412772823 12.371441609977838 13.194692084206814 0 -1 0
163 1 6.2972535953686855 12.949302227848246 13.205786440075148 0 -1 0
250 2 6.428604356611753 14.244303030847572 14.215793080211062 0 0 0
119 2 5.331353606477033 11.718191853997816 13.700526683876667 0 0 0
257 1 8.981598553554768 11.951406425396847 14.364409781505763 0 0 0
710 2 9.157564259795704 10.324483001304225 14.408042101288093 0 0 0
242 2 8.373117463957474 12.514684813134815 15.762036544598153 0 0 0
394 2 4.943658220303318 12.312049533326341 16.180278273516887 1 0 0
381 2 4.110586651310191 13.414324200380893 18.430302002333384 0 0 0
375 1 4.6418711660178005 10.35292906202232 19.823536934583515 0 0 0
315 2 1.9024475230459081 13.886088090668629 19.5895231925316 1 0 0
232 2 1.909900095910209 12.754083320686647 16.991903753234514 0 0 0
406 1 2.577021482823751 13.787850959446173 18.099584453895705 0 0 0
213 2 8.945293437293907 14.502286127260298 17.393093747146203 0 0 0
379 1 8.400078627916576 10.938939522427319 19.585339342075258 0 0 0
343 2 8.494708854653341 11.858711748221602 18.247821671846452 0 0 0
569 2 5.311519076186475 11.09585741874274 18.506895556396206 0 0 0
144 2 6.617502202832499 13.450030370753012 17.714708115724974 0 -1 0
271 1 8.14337096239909 13.094285721579205 17.26431298057297 0 -1 0
485 1 5.272092549213071 12.54511094132549 17.735279289502216 1 0 0
499 1 0.1708022862102129 13.52341887118259 22.562983484993204 0 0 0
537 2 0.15915223883245094 12.379667245921368 21.38220977411771 0 -1 0
494 2 1.3726140248388161 14.564685899478116 22.15743093568639 0 -1 0
612 2 4.777760252899921 11.430316111189407 21.054453541969007 0 0 0
619 2 0.6157491750550573 12.922372512802268 23.96557893233233 0 0 0
549 2 4.323432312887685 13.838055774254086 24.46288496618139 0 -1 0
526 2 1.8041804159229127 10.580820481000309 24.476994083025943 0 0 0
554 1 1.1383489096034662 11.948340430941434 25.126618550554475 0 -1 0
502 2 7.4525418578647615 11.658108494056433 20.733817859417456 0 0 0
648 1 6.208481284724776 11.736138405138677 21.820573611645358 0 0 0
746 1 7.385311956537817 10.288152808854132 24.150332637072406 0 0 0
474 2 8.891378322419229 10.52224150028726 23.575521483782687 0 0 0
121 1 5.397058763821959 14.462009353257148 23.357640410343905 0 0 0
511 2 6.141530042182496 13.168340418725816 22.622714328905882 0 0 0
623 2 6.398244410626013 10.480666595085754 22.88535548661558 0 0 0
407 2 6.8108637763474835 11.1985157973689 25.39238277293352 0 -1 0
419 2 2.26828564443532 12.811517795754256 25.92557811688756 0 -1 0
302 2 4.203752043284888 14.44324517201528 27.101324725483693 0 -1 0
557 2 4.610808003234396 12.006591850120893 26.523491929454796 0 -1 0
550 1 3.8320736488167007 13.338065583122216 25.98462910045417 0 -1 0
767 1 1.7461266636203734 14.975325392556456 9.01009606497855 0 0 0
654 2 9.13682012919523 10.336549235411104 26.520630124719236 0 0 0
476 2 9.991319414151473 10.844388157579328 19.935626510817066 0 0 0
51 2 3.655644648364028 14.652885210074519 29.751362517113026 0 -1 0
577 2 0.11705057837231525 14.839335127372182 27.47960601424212 0 -1 0
186 2 3.248803628120806 17.834404599028268 3.0317409698525464 0 -1 0
672 1 4.011676994316246 18.524157040020985 1.7444356695055736 0 -1 0
703 2 2.8714486890646294 19.461652689802026 1.148319001259715 0 -1 0
10 2 0.6368186579008078 15.7590798850838 3.839832536934447 0 -1 0
682 2 4.352492206434906 17.57147859740843 0.45823531791483385 0 -1 0
545 2 0.22006936879128852 18.333625765566598 3.665415246732875 0 -1 0
688 1 9.902662559056399 17.392119958466704 1.6523363438321064 0 -1 0
686 2 9.97273587755396 18.83458686061401 0.8927758760442911 0 -1 0
24 2 8.62045956560801 15.22016181583349 3.9630059766367056 0 0 0
717 1 7.662778457078563 16.492188298973005 3.5629351361208172 0 -1 0
56 2 5.306636437469772 19.365658581315795 2.447056299062039 0 -1 0
610 2 8.425145358425471 17.373160914032372 2.441742310065642 0 -1 0
17 2 6.186700450259006 15.987429185187905 3.0406319742424994 0 -1 0
13 2 2.069207822427237 17.497441275160472 5.355101581416011 0 -1 0
15 1 3.476127881562583 17.37280204623993 4.554127281843238 0 -1 0
675 1 0.6211406005205743 17.158613988589252 4.690304756805087 0 -1 0
676 2 3.9530351297510524 15.825571674811517 4.624247513606721 0 -1 0
53 2 4.614610002419016 18.247205360607023 5.2948863158038195 0 -1 0
156 1 5.050368215065521 18.17178049524607 6.862263295256723 0 -1 0
203 2 3.792835044974097 18.917138444692917 7.57288191396674 1 -1 0
371 1 4.797977313644458 15.272346989705285 8.193927149078872 0 0 0
159 2 0.6580028616154148 15.677843864819108 8.040522102627026 0 -1 0
92 2 9.015056801314037 18.19440463916607 7.015388709016011 0 -1 0
94 2 6.522215739875067 18.899828970138685 6.8666033899074215 0 -1 0
25 2 8.42408680566514 19.827366432997703 5.080762999782506 0 -1 0
748 2 7.446619672993763 17.353061890948002 4.942619662765803 0 -1 0
687 1 7.844633685848081 18.57855572905443 5.94379674691939 0 -1 0
16 2 5.268346425743113 16.682209113580594 7.505691751395238 0 -1 0
20 1 4.3688589340775055 18.099998684695514 11.339418319083073 0 -1 0
555 1 4.312493742820397 15.36924942322793 28.502262308154837 0 -1 0
264 2 3.212780925380519 15.307579320709408 8.4547451352582 0 -1 0
162 2 1.4085717231127477 19.6545316333846 8.817267736258229 0 -1 0
71 2 1.6281555474782061 15.683772457709848 10.450293254630521 1 -1 0
42 2 4.458246484954121 16.454781508053273 11.620558271790394 0 -1 0
11 1 0.5804769018543463 15.911148918928115 11.642356497171784 0 -1 0
188 1 3.0421803081007215 19.47556900035907 8.90222703336198 0 -1 0
341 2 3.737788067986742 19.161027404607395 12.46172672843736 0 -1 0
338 2 3.4201980090084905 18.36405595669182 10.050274427117545 0 -1 0
124 2 5.599046394350621 15.092461800056949 9.631590395462075 0 0 0
187 1 7.473244738322158 18.53344133396253 10.47219374485474 0 -1 0
61 1 9.288732978608133 16.14040538670836 9.835916920839395 0 -1 0
227 2 6.924753055538705 15.7916252524518 12.026630495533068 1 0 0
246 2 5.976794197653418 18.511033136600048 11.082904035970662 0 0 0
197 2 8.607750729325636 18.903160566862223 11.874799060803218 1 -1 0
190 2 7.969180942749756 17.156313445599586 9.792771358499225 0 -1 0
183 2 7.728155963682281 19.855833084650794 9.573424299954077 0 -1 0
23 1 5.558049714028134 15.220680028690062 11.272260393419389 0 -1 0
377 2 3.5881515849032812 16.87659035289058 14.522924342837701 0 0 0
489 2 1.3360668845151054 18.51391989281122 14.527009380514885 1 0 0
74 1 1.9706467254467337 17.029934858252346 14.281092503797849 1 -1 0
2 2 1.451304078689009 16.75775580569769 12.750665850759157 0 -1 0
176 2 1.2683472505216884 16.053126491241507 15.392412886932123 0 -1 0
231 2 6.326664533786461 16.825221351834948 14.39328087747195 0 0 0
249 1 7.130376895229453 15.617645367679831 13.658923609243512 0 0 0
296 2 7.0422812091893014 19.683283250631387 14.015420799509966 0 -1 0
462 2 8.747700572084032 15.555193767451003 13.876310771715625 0 0 0
274 2 5.060933704515554 18.789538415564817 15.509673684945358 0 -1 0
252 1 5.007914295706212 17.169690966241557 15.30457917374719 0 0 0
642 1 9.86780337927215 15.839924621729903 17.277617181094378 0 0 0
520 1 1.4589066610923893 15.092620494892897 20.62399437653351 1 0 0
410 2 2.5432414293567285 15.300995635857404 17.507270459991496 0 -1 0
267 2 3.9544650209459316 18.13600408407256 18.18507374763781 0 -1 0
397 1 1.2074925119940707 16.101894351270047 17.0241926289339 0 0 0
483 1 2.4405783689133753 18.70182294771876 18.210821861550365 1 0 0
444 2 2.183067107365373 18.967147363964607 19.80632696446182 0 -1 0
324 2 2.3499660503006354 16.437349265124848 20.582294009399423 1 -1 0
611 2 1.3399544465334343 17.641506058844634 17.589150872707947 0 -1 0
278 2 8.439416258588155 19.812142733225976 18.10401147368859 0 -1 0
500 2 5.331452298099618 16.33215487727874 19.634042504799982 0 0 0
464 2 8.57869257103047 17.93700813954355 20.027867081880913 0 0 0
276 1 8.174767977810017 18.245076780978184 18.49161181199739 0 -1 0
390 2 9.047551742539099 17.191910262069705 17.62119047351034 0 0 0
266 1 5.250868623201996 17.175255634766494 18.221113815427653 0 -1 0
649 2 6.601156245948094 18.065711219317432 18.180470956675567 0 0 0
374 2 5.163358643244019 16.40519782648674 16.756634533790812 0 0 0
552 2 5.875216879533597 15.892869423339683 28.881460514562868 0 -1 0
420 1 2.6274174645429564 17.986296935110317 21.046381704548466 0 -1 0
422 2 1.754685302236455 18.532564191179965 22.317972617732316 0 0 0
680 2 4.214236525252815 17.96520271067685 21.43924584406422 0 -1 0
411 2 6.384565620662949 15.515263205033683 24.16018864025609 0 -1 0
538 1 0.1624118257451175 18.798429847230665 22.53924188522843 0 0 0
506 2 9.381604304510992 16.90084247526775 22.345300118002502 0 0 0
503 2 4.8617144930379235 15.413230999945187 22.10747679001143 0 0 0
200 2 8.699133368743354 19.349485557119806 22.28377136590387 0 -1 0
238 1 5.3176660568304515 16.74911584614801 21.246883139265346 0 0 0
479 1 8.30604706362813 17.886053357423553 21.622656987980093 0 0 0
629 2 6.757497164334203 17.36190230741178 21.78556411547467 0 -1 0
583 2 6.671334254648983 18.209258824200347 25.165279578993164 0 -1 0
561 2 3.6077141813652935 16.785813265257367 27.96609656941867 0 -1 0
567 1 0.015784620356891654 19.935367378538214 3.878899870102682 1 -1 0
669 1 1.3379474870505124 19.039086331036014 27.401254527722386 0 -1 0
288 2 4.476219050716485 16.8674932653882 25.435317037643784 0 -1 0
332 2 0.5439066032337418 17.584026857157824 27.654270477342628 0 -1 0
528 1 0.4645123851721317 16.236685645587702 26.72353310148914 0 0 0
49 2 1.9234691100790116 16.13954848290977 25.936854698551105 0 -1 0
681 1 3.1810973661725486 17.111592990040656 26.42999271812057 0 -1 0
589 1 6.9222954814195115 19.214582739901253 26.46340795601422 0 -1 0
584 2 8.457242862433954 19.775115725710705 26.401631716823925 0 -1 0
580 2 8.511995560175418 16.461624902993066 28.83244273074361 0 -1 0
715 2 6.773540742295494 18.315086764865036 27.844685460920843 0 -1 0
513 2 6.996427780954752 16.041401641383512 26.562173399337098 0 0 0
443 1 6.109482895869868 16.651723864580067 25.319130237284188 0 -1 0
559 1 7.042964633929705 16.68056037562739 28.08071190605589 0 -1 0
607 2 2.6142765905935548 18.64668513273372 26.377981576999694 0 -1 0
461 2 0.32074758446443274 19.962347820700234 26.463674586040938 0 -1 0
794 1 4.911214782705387 15.08274149865191 3.5355693267637283 1 0 0
548 2 1.7264525768147478 19.844477505830344 28.716803336160446 0 -1 0
776 2 12.635392477316456 3.0489722011321403 3.0204087661809567 -1 0 0
597 1 12.130531127287567 2.6845648578973447 1.4826636374274256 0 0 0
99 2 11.23980947795879 1.2587350548329255 1.4175673151718566 0 0 0
721 2 11.166962541756787 4.030503975589107 1.3642717599043328 0 0 0
65 1 11.707521311883003 4.473457886676322 2.8996474625913224 0 0 0
491 2 13.247924114027153 2.7585888430957572 0.3154146182647903 0 0 0
102 2 10.414016360478215 4.47146330753896 3.8748116931663334 0 0 0
565 1 14.555249542004082 3.667167281994952 0.16194616349324947 0 0 0
631 2 14.54117644054044 4.919273086202281 1.1893271970541524 -1 0 0
78 2 19.575937776865956 0.48414411995221696 2.4296257601105156 -1 0 0
398 1 16.00903744771855 1.2506248658200556 0.7592872243291129 -1 1 0
432 2 15.222500142185575 0.8050570304599579 2.160156908096615 -1 0 0
8 2 17.504548081684614 0.5792520654313487 0.8750208729700056 -1 0 0
402 2 15.950664219935142 2.8284780946460337 0.6280577601888314 -1 0 0
39 1 19.106921401648 0.8207572089861276 0.8943986532918233 -1 0 0
630 2 19.57319699557947 2.340449125513025 0.7022950497351875 0 0 0
230 2 10.54970368150667 3.958269492070488 6.463097102864436 0 0 0
79 2 19.65906269870338 3.435077552489676 4.151985572946994 -1 0 0
73 1 18.12841121687687 0.6768982146774509 6.34024059280886 0 0 0
616 1 18.685913933382952 3.6078115234187695 5.494616039951512 -1 0 0
704 2 17.90459403652575 2.2417176640623984 6.024245717769546 -1 0 0
86 2 17.325281405943738 4.177540293118663 4.551645233328643 -1 0 0
81 2 18.87186539564755 0.0641110381220158 5.013698869509983 -1 0 0
449 2 19.59310915538952 2.245906829410196 27.72907098143626 -1 0 0
100 2 16.62319934528024 0.03736569640320673 6.54108518006564 0 0 0
185 1 19.733018384191727 3.401602664794244 8.23091193905547 -1 0 0
38 2 19.00173716765288 0.23719264996603967 7.673677557099087 -1 0 0
689 2 10.401621558961136 1.7044934280350044 29.746052486729223 0 0 0
194 1 12.21289580199599 4.803396041930346 10.676509826476215 0 0 0
346 2 12.7151838479495 3.971543285889392 11.974583220287851 0 0 0
63 2 10.983635252670673 3.880225984708401 10.043329260586 0 0 0
75 1 17.314513881794667 3.9588410657741258 9.86455270617275 0 0 0
228 2 17.14337698432071 0.8007423661573515 12.13203595878027 0 0 0
214 2 18.52392942237345 4.29031529054969 10.914828583327777 -1 0 0
456 2 16.476594180389537 2.7511952532513724 10.56901021080404 0 0 0
323 1 16.530191090479644 2.326953173555804 12.140928640354494 0 0 0
64 2 18.083223852992504 3.4765684384081985 8.520726795143975 0 0 0
157 2 19.216957159262186 0.11419193813657941 10.373050698093369 -1 0 0
305 1 13.504842608589149 3.128079410266826 13.113172623333533 0 0 0
196 2 15.066017126881997 0.3088971342942475 14.362565182738813 0 0 0
290 1 13.782527893670187 0.29943493324221737 13.361125019674795 0 0 0
313 2 10.445684151882658 3.3188053389230383 14.627720559011939 0 0 0
306 2 13.176096402106872 4.008398026732528 14.452837793103873 0 0 0
447 2 12.86813302678434 1.6457926346582794 13.447232270337004 0 0 0
578 1 19.21160382806565 1.1256679658808577 26.566094142807056 -1 0 0
356 1 11.84625509133413 3.7085464778758186 15.375348303573903 0 0 0
281 2 12.260719391121624 2.374510089756435 16.229613987342656 0 0 0
355 2 17.564939263056058 3.180649692687518 13.051192365268497 0 0 0
312 1 18.319132006137913 3.203571314390569 14.478591712637717 0 0 0
146 2 15.052241957284034 2.744404864304599 12.742927431975511 -1 0 0
27 2 17.88018029461668 4.585318635139004 15.224026834663304 0 0 0
301 1 18.23912704311728 0.7228639317303385 16.188597164615686 -1 0 0
497 2 17.68465676917305 2.015360011728107 15.389472769583524 -1 1 0