LAMMPS data file via write_data, version 2 Aug 2023, timestep = 5000, units = metal

804 atoms
5 atom types

0 20 xlo xhi
0 20 ylo yhi
0 120 zlo zhi

Masses

1 28.085
2 15.999
3 12.011
4 1.008
5 18.998403163

Atoms # atomic

1 2 9.285406926296137 3.26136947500554 3.3597174442866162 0 0 0
2 1 8.736608077435335 8.398750482462047 1.2490849102523427 0 0 0
3 2 0.3732591517421443 0.2794216443319539 1.734010261969722 0 0 0
4 1 2.6934444327683558 5.285324298866594 1.6324961255886947 0 0 0
5 1 4.037577500092074 7.993388781711563 0.40296741372959477 0 0 0
6 1 9.316383796282636 4.460718269557063 2.34170120519034 0 0 0
7 1 9.178778945804039 0.8186957036411747 0.7385475484990955 0 0 0
8 1 6.504183747161183 4.290070039870529 0.8993632145011856 0 0 0
9 1 4.772906990226692 4.645311337525828 3.3990600964714766 0 0 0
10 1 8.325189160958024 1.9200744090216895 3.4704351657991204 0 0 0
11 1 0.1291989082152193 4.231697101463982 2.7159059908238063 0 0 0
12 2 2.199540095202989 0.339556567953783 3.4634493560563087 0 0 0
13 2 9.34338894577644 9.882707105005913 1.6591246647399025 0 0 0
14 2 8.141116175223724 7.891679101251876 2.6695841702559626 0 0 0
15 2 9.641458075390705 5.788178758702664 3.2131160319603396 0 0 0
16 2 5.773818149613876 5.875744804864489 3.6279572166864504 0 0 0
17 2 9.935088473276835 7.437234238690573 0.8201797461674012 0 0 0
18 2 5.0097013129230294 9.001270573162811 1.1972707190039031 0 0 0
19 2 1.0204272265216214 5.31957243744317 1.8623384920110198 0 0 0
20 2 2.702130394173154 8.836939136255786 0.16113083904071956 0 0 0
21 2 3.4818470266443047 6.657671873596889 1.2423214630250037 0 0 0
22 2 2.8106186501471306 4.140249038930244 0.4176037744343333 0 0 0
23 2 3.2536286055921293 4.976182525413023 3.096904918266546 0 0 0
24 2 8.242769256269245 1.4120435999830696 1.9379573653530036 0 0 0
25 2 7.973059764540402 4.675618169932227 1.5087546587333236 0 0 0
26 2 6.6829583117283615 2.7559092103836456 0.3655395605759608 0 0 0
27 2 5.246403224087147 4.025124240558798 1.94807483445846 0 0 0
28 2 6.034838873787636 0.16079591417630362 0.4823866164091619 0 0 0
30 2 0.9965967440207057 3.6572290051235394 3.9157362976256915 0 0 0
29 1 9.102113296399473 7.21489529755257 3.8997969928143874 0 0 0
31 2 6.880357743379971 2.1392661007679417 4.058276412070054 0 0 0
58 2 9.166401839281347 1.017730421137721 4.519408750158277 0 0 0
55 2 6.02785742369059 8.3276671079735 4.480708354733803 0 0 0
57 2 4.499453329436729 1.160505217951975 4.508697399545536 0 0 0
32 1 3.0005923053540915 0.745850337858035 4.8248183967996034 0 0 0
59 5 3.820258993287493 7.109002693975539 4.553414396944427 0 0 0
56 1 6.26837822793465 9.93291719793958 4.543510315440489 0 0 0
33 1 7.118769871358492 5.157127262959774 6.941158993195496 0 0 0
34 1 9.836542081175688 0.4223871094559021 5.875938681430643 0 0 0
35 1 6.371270578459197 6.774431769179405 4.8466539131320845 0 0 0
51 3 0.6148463708452826 6.0825531068675565 5.9948410904404215 0 0 0
50 5 9.90862816221164 6.447195758566044 5.9311421949877765 0 0 0
49 1 3.1202624556614267 7.5499592891727785 5.900384106083814 0 0 0
48 2 2.716543888285347 9.129935609552165 5.9530529555470935 0 0 0
47 2 8.004711636973676 6.707172200001583 5.033259566024284 0 0 0
46 2 2.3541071610332347 2.072096108061457 5.520514439679477 0 0 0
45 2 0.44093634015793665 8.613997134798703 5.869073188002819 0 0 0
44 2 0.1845188401011946 4.531208954953401 5.999362070066655 0 0 0
43 1 1.3312963137385836 9.874085670463026 5.996003719719493 0 0 0
42 5 8.311965055801169 4.489170255280012 5.998474975688537 0 0 0
41 2 5.016150906910034 3.706242892241085 4.726420416780962 0 0 0
40 1 1.0284997855623863 3.0762246614281152 5.393162325277547 0 0 0
39 2 1.7832108627146703 6.636901815042138 5.999310789287669 0 0 0
38 2 6.002723679791494 1.887340171274141 6.501078976055738 0 0 0
37 1 5.575968787229057 2.269330112253092 4.945357919906063 0 0 0
36 2 5.846433454179065 5.713324621668137 5.993861528737927 0 0 0
81 5 8.73659661648595 8.614353960326905 7.110384745631244 0 0 0
52 5 9.20491572783349 0.9407946866944145 7.217753480390552 0 0 0
54 5 4.02589963465922 7.23356459395625 7.157499614513995 0 0 0
254 5 7.787268626308665 9.60695801599513 11.630636899958475 0 0 0
70 1 0.44791684952245225 4.548494118744055 10.037746264395565 0 0 0
83 2 6.51503598274052 4.015512412582419 8.023145722390854 0 0 0
82 1 6.030145305411709 2.4878432310801286 8.008281078102923 0 0 0
61 2 9.238975135358093 7.763547449879677 9.537383257881665 0 0 0
79 1 7.526336625392074 5.845016372108916 11.554971327016347 0 0 0
77 3 3.3643197178283395 4.7818060410992675 10.037556401187123 0 0 0
60 5 9.352335585943685 0.5649255745807453 11.795572547390597 0 0 0
75 3 2.1967246706940937 4.555617258446157 9.671936026451462 0 0 0
74 5 7.080439928227897 1.6242012021010546 8.897384949105918 0 0 0
68 5 4.091050123244938 7.333008881695276 10.652500954759553 0 0 0
72 5 4.598329541540274 2.4090354859765895 8.637850372550105 0 0 0
71 1 8.13134210331441 7.7510724804167666 8.310539467535868 0 0 0
65 3 6.479807623269204 1.498906254078238 13.239626666828695 0 0 0
69 5 0.6412843263869515 7.9715897764032775 11.327239889963069 0 0 0
76 3 5.834353912731082 5.224314003338485 11.846172883162922 0 0 0
66 5 6.7589064972125525 8.393250586355435 8.723746149714394 0 0 0
64 1 4.212510303196822 5.832268853615909 11.282032678573696 0 0 0
89 3 0.19053879605042406 3.905530124243265 11.78919632428417 0 0 0
266 1 6.166453020927396 9.569046240794782 11.885332978067519 0 0 0
85 1 1.2610429280786386 7.570270069819474 12.71560762699233 0 0 0
53 2 7.872052240149121 6.238267920473868 7.830767871211081 0 0 0
86 5 5.795123118481259 8.122714112811572 12.265868502298014 0 0 0
88 3 0.7317514688146041 4.150958872820927 13.042839164703778 0 0 0
63 3 6.57519721924107 0.6156280838137078 12.370334769480294 0 0 0
67 3 8.877673681742221 5.724007931855374 12.890419073413272 0 0 0
78 3 2.064071355781353 6.090871469385492 13.004296237924736 0 0 0
80 3 3.1790043338619607 5.4083905726181 12.744198035479842 0 0 0
87 1 5.353563424076765 4.069858329843617 13.036230042097253 0 0 0
98 1 1.2689550509392522 0.2226746816567353 16.07311728874329 0 0 0
92 3 0.6514942333642195 1.8318008459856594 13.713565885187485 0 0 0
109 3 1.9248034774131288 5.5251361883224845 15.646138847980975 0 0 0
94 3 3.6516252141964567 4.189294907806167 13.40237722144212 0 0 0
103 3 0.6312377821549313 5.5590029354874435 15.042518462921963 0 0 0
97 3 6.4654941756584625 3.8103871545445394 14.559330925220989 0 0 0
99 3 2.67507509004488 3.5676468891025204 14.338911783706855 0 0 0
100 3 0.4694908556398193 0.5683521440600201 14.434389510084884 0 0 0
105 2 5.566708805247339 9.443770960773604 15.721580359667977 0 0 0
108 3 8.648454016881825 6.1342807433957445 15.41187598116408 0 0 0
107 3 0.9136529946004163 5.4644461726229645 13.568618198460593 0 0 0
104 3 1.388061013827355 3.124367485052504 13.806906435925598 0 0 0
91 3 8.464969941922057 5.9395660922830595 14.13920146088284 0 0 0
111 1 0.4553504823146265 9.347510144789357 15.207630302198847 0 0 0
101 3 2.7441781838290513 4.287586975603273 15.631820990661335 0 0 0
102 3 6.372857280804864 4.28489173039072 15.813251652595646 0 0 0
110 2 1.0324493031715607 8.796983224117781 13.72759160038101 0 0 0
113 5 5.1966650349432655 1.691818231907355 16.3538456728249 0 0 0
90 3 6.290649177141763 2.710109937730531 13.73758505845216 0 0 0
124 1 2.206050293534388 7.1616981153066295 16.418362858083306 0 0 0
117 2 1.0224111188578535 8.318876668593168 16.34868850048174 0 0 0
115 3 3.6679094425656595 7.5871442368197775 17.32274805302382 0 0 0
118 1 5.256372700726413 8.318146213942669 16.90099781469452 0 0 0
119 2 7.540794104870299 5.222078958699711 18.122156090261186 0 0 0
523 3 9.897149361586491 6.483290483788652 19.972801554655916 0 0 0
131 1 7.123735545295968 3.9282341587292127 19.083540793274754 0 0 0
132 3 5.725149079515473 9.220028273985001 18.47530874409717 0 0 0
129 3 8.98374246553039 1.884881528934606 18.837680816563385 0 0 0
128 3 3.167732559181611 7.8141176555499445 18.60400176373806 0 0 0
707 1 9.612909812794793 9.738382174020987 18.903672843600525 0 0 0
125 2 6.007312363765305 3.060309827055897 18.31930805271163 0 0 0
121 2 3.023694995849433 4.22350960038022 18.021410498959057 0 0 0
130 1 8.483363064812782 0.10918945287395021 19.279915448632856 0 0 0
518 3 9.778920842379183 7.26024146865203 18.960313779773433 0 0 0
307 5 3.23844943417285 0.6577668457978587 19.355981826948856 0 1 0
123 3 9.723617002411597 8.170894165345693 17.881622204101987 -1 0 0
134 3 3.5052486556953673 3.989102115789553 16.904811384387674 0 0 0
95 2 6.229946153159648 7.038892661685443 16.770986889745796 0 0 0
112 1 7.230503702839075 5.6874341146289344 16.57545755567735 0 0 0
126 1 5.207050000625908 3.227250332407863 16.85791238442031 0 0 0
270 2 2.5827534371681753 0.9045000849802877 16.856082959241505 0 1 0
114 3 2.857055922189746 8.774631860883868 19.68958191244686 0 0 0
127 3 2.873601811721615 7.422446357910961 19.93403772810644 0 0 0
133 3 8.562649278090024 2.954829953470065 19.717439110626714 0 0 0
517 3 8.247658086808338 9.701964016495507 20.117227777797023 0 0 0
154 3 9.87327979462378 2.6925190057974495 21.920817071334305 0 0 0
136 3 8.702928210366002 3.101907419322283 21.169257437069795 0 0 0
148 2 8.29657982042183 7.979437223051774 22.410362898769527 0 0 0
146 2 1.1492102515293006 5.3578027908559145 20.33440582648709 0 0 0
137 5 6.247275252152026 9.353381175202214 21.89284749207337 0 0 0
149 5 6.1223079001826575 6.982486846607111 23.37421113163324 0 0 0
147 1 6.988091541773409 3.515439980005554 21.751691453195335 0 0 0
141 1 7.4006855396638604 8.562696467524145 21.200845579598795 0 0 0
145 3 1.7312213352359596 6.804323971327893 22.549762938711698 0 0 0
139 1 2.41945670266648 6.142339370741658 21.076808743190874 0 0 0
152 2 6.442189995082016 4.43249009460879 20.508584264806167 0 0 0
151 5 2.5198460048914413 0.2854389806046534 22.148664634442607 0 0 0
144 5 3.7586362500979424 5.171379185195696 21.13489272482912 0 0 0
140 5 5.955549789725724 2.37239146582179 22.268096900424997 0 0 0
150 5 6.732438607213145 7.330720408556724 20.413315758721158 0 0 0
153 5 7.330591599060172 0.08961335111672997 22.904405400236346 0 0 0
138 5 7.348618327613741 4.399844528034073 23.080751654374385 0 0 0
156 3 0.5430179990236261 6.8468662562241995 22.903336754371956 0 0 0
142 1 7.514093663422871 7.605544753898404 23.765393219957026 0 0 0
157 1 6.434224470691188 8.326871785152012 26.530919863498347 0 0 0
336 5 4.626448341376271 9.549295810463914 23.859823455301335 0 0 0
159 2 4.818722805920323 8.757071698118915 26.41882428361111 0 0 0
344 5 9.141829437418306 1.3837899878395346 26.220490451163883 0 1 0
162 3 7.173947369334384 8.901730401346736 24.91691526614936 0 0 0
163 1 3.8206813748780406 9.13750935291503 25.122401347929536 0 0 0
158 5 6.421771697740189 6.703066337774497 26.478026524252968 0 0 0
542 5 2.7631270870062625 7.9247335157585805 24.91460153038829 1 0 0
572 3 0.7571463278457389 1.3061240996659471 26.56308485801949 1 0 0
528 5 8.180765570566823 6.413164571796543 24.49616833390528 0 0 0
354 1 9.93377945082728 0.3517723948257526 25.33056115841035 0 1 0
174 1 4.1823352866724886 2.9496152519414016 31.953145296776242 0 0 0
188 5 8.359611256170442 7.277548916642971 30.535890888410545 0 0 0
166 5 6.560465269388147 0.908244974133654 33.05941076050794 0 0 0
179 3 4.941661445430313 7.020836263119868 30.35458669539611 0 0 0
165 1 5.7379277027958295 0.5700867620564658 31.606300813478736 0 0 0
170 5 4.8666848928198565 4.0254342925246815 32.900549653133965 0 0 0
169 5 2.932304317872561 2.3912113795925762 32.720065758516974 0 0 0
190 3 4.359870497212171 9.17637497291116 29.840633861290375 0 0 0
187 1 7.224219426074122 8.079017737170544 29.688512062762015 0 0 0
172 3 5.431507156819956 8.293829340426775 30.4337537259393 0 0 0
171 1 6.069072703960852 9.431169419046242 31.922499578872817 0 0 0
574 3 5.066001833896387 2.0028759616374194 30.829351347795566 1 0 0
161 3 9.251917702354794 9.85033388650813 27.084460343881453 0 0 0
186 3 1.3102120393684649 7.034734215356002 28.404193939457095 0 0 0
184 1 3.6799318510700663 5.0968352113731825 28.64471947004332 0 0 0
181 3 3.6917245104465604 3.3570606307128426 28.631963429039246 0 0 0
180 3 4.458172937781516 5.947705487060543 29.992479589152058 0 0 0
176 1 4.818932795204972 2.016902452788213 29.03213852237436 0 0 0
191 3 3.0931398922112106 8.761935690830104 29.591895178039064 0 0 0
195 5 6.3066492108939 2.0662046868514867 28.34228059470058 0 0 0
178 3 3.9400967987297486 0.5867441621457667 28.294225787125974 0 0 0
185 3 2.6576062493016854 2.699425780166359 27.974579146797147 0 0 0
173 3 2.0213226716960153 8.045560970482729 29.05969985088073 0 0 0
196 3 2.0901010413100463 9.401678863087481 28.813863996801356 0 0 0
189 3 1.9333336549419906 5.691478640266662 28.37067466403631 0 0 0
193 3 8.196211619690175 9.842929944450294 28.03886509906601 0 0 0
183 3 2.8113518423910957 1.2269933883161295 27.671981944317917 0 0 0
198 3 7.343953393440428 8.74474683870418 28.079482297746367 0 0 0
192 3 1.3860678882482862 3.3683006506850646 27.713562614388945 0 0 0
182 3 1.0618014079647993 4.719417378934729 27.895578016907965 0 0 0
164 5 4.306837474038524 5.5508700046187816 27.260092275023656 0 0 0
177 3 1.8236471026031182 0.5171845146605616 26.962140910459844 0 0 0
565 3 0.5346376558398434 2.6461723205345846 26.88954149144722 1 0 0
569 3 0.13272735997836094 6.962905502164025 27.579667738055512 1 0 0
199 1 7.063188837687107 18.863831757395722 0.6967296236688476 0 0 0
200 1 7.1055888553544495 16.697280567386827 2.674172104112049 0 0 0
201 2 2.3565759949494964 12.563509955967032 0.33639235392528377 0 0 0
202 1 0.786138030318243 19.5835031450318 3.187093997649953 0 0 0
203 1 0.8409241475792941 16.73879715150102 1.6802160116861806 0 0 0
204 1 3.5087832059977773 16.024445001040775 1.1637547398607744 0 0 0
205 1 5.6017358136945985 10.54776946528879 1.49926750612223 0 0 0
206 1 3.8960654153266594 13.086699504414145 0.4709619006391427 0 0 0
207 2 4.602636796683775 11.839857962292069 1.2391925588518262 0 0 0
208 2 8.583282317682897 19.372110869949736 0.5214853356111426 0 0 0
209 2 8.674642193302095 16.653444443689146 3.1722329563495677 0 0 0
210 2 6.7335041075400515 18.26104608804602 2.1669245212365453 0 0 0
211 2 6.824141562289947 15.779828154857247 1.4003961553141728 0 0 0
212 2 0.7731471455687994 15.270040458051678 2.4370729752088423 0 0 0
213 2 0.8079591060419169 17.97414205089342 2.791045806799495 0 0 0
214 2 2.0436677906043563 16.570442265665363 0.5880593118726978 0 0 0
215 2 3.862790729480686 16.757862849089882 2.6367570335057664 0 0 0
216 2 6.863029236736687 10.970239724073645 0.5011337367722604 0 0 0
217 2 6.285693363025193 10.479182854238871 2.992712023791924 0 0 0
218 2 3.703127147197987 14.379362777557514 1.397550118125931 0 0 0
219 2 6.17760184964709 16.211266689877892 3.9324538289217266 0 0 0
220 1 4.595634282662193 16.405128522602148 4.057922339488655 0 0 0
221 1 9.53943807176791 17.398894697543135 6.200652422581287 0 0 0
242 2 3.54195685610284 15.208058201577963 4.583208291297375 0 0 0
241 2 2.8714486890646294 19.461652689802026 5.835421381887955 0 0 0
240 1 6.361240596426905 17.799867041778835 5.997393836910528 0 0 0
239 1 3.035671367537862 14.135163216941837 5.7072548105362175 0 0 0
238 2 1.7251347219638224 17.00369496396121 5.999180189415274 0 0 0
237 2 8.903901990610413 12.597188154633642 5.294974404146117 0 0 0
236 1 2.9826927561414625 17.90761623574634 5.994997533127526 0 0 0
235 2 4.352492206434906 17.57147859740843 5.145337698543078 0 0 0
234 1 7.769051173355068 11.804630843209372 5.970239736500562 0 0 0
233 2 4.921022956989358 10.453227882034051 5.342871465330596 0 0 0
232 2 9.97273587755396 18.83458686061401 5.579878256672534 0 0 0
231 3 0.305099057940307 16.998081542022305 5.995853592704661 0 0 0
230 2 3.84131306950263 12.728019499866186 5.391147831293716 0 0 0
229 1 0.4213614612243717 12.578374195529246 5.178991406758166 0 0 0
228 2 6.452710893171525 12.603489207225245 5.804858347774176 0 0 0
227 2 7.951306069098014 17.26668084115801 5.999623945455843 0 0 0
226 1 4.999535025165382 11.90301794958902 5.998734228174311 0 0 0
225 2 1.1824881108441216 11.110064984862511 5.059262240322867 0 0 0
224 2 1.4368423989530577 13.774554853801959 5.769056867589005 0 0 0
223 5 6.488698128137644 19.312441943024734 5.999304104316545 0 0 0
222 2 7.5484533311547 10.305738981413535 5.544886227791066 0 0 0
246 5 1.0993242892654007 10.428443067803169 7.500463122735871 0 0 0
243 5 3.3182871540318457 14.552427946569725 7.222258521657357 0 0 0
244 5 8.326945670184115 11.783278721013442 7.453951804507852 0 0 0
245 5 9.935354297464903 17.27408608876352 7.740654498418628 0 0 0
262 5 3.8503557660968517 18.62671856979633 12.535379981482155 0 0 0
261 1 7.077087081714341 19.25485145620388 9.906595246201599 0 0 0
264 5 5.133935840320264 13.442298296453572 11.8676910749345 0 0 0
84 1 9.419454681431581 19.54425435161854 10.571992093690138 0 -1 0
259 5 9.467888351984168 15.349020459303876 10.942349762540726 0 0 0
257 5 2.498766975531785 16.669374792844774 10.200977292079452 0 0 0
256 2 5.838636866647732 18.92778636256321 8.861591475932475 0 0 0
255 1 1.8875284247624478 17.40429266202339 8.887503187435897 0 0 0
250 5 5.5731544519629725 16.735634564030736 11.948483978588623 0 0 0
253 5 5.443394475563092 16.21345537179526 8.725161311608526 0 0 0
248 1 5.141968293912243 17.65796123354089 8.051523014335261 0 0 0
268 1 6.292017434368721 12.50296217122182 12.618038490682546 0 0 0
247 3 3.279457272597237 17.85687496997526 7.831447953098381 0 0 0
654 5 0.4547639607495092 12.97122535719609 8.938273731504871 1 0 0
260 3 0.07185845264648674 17.574084068183183 8.812490941963501 0 0 0
251 3 6.382853394253836 19.484611408620612 11.624041231325208 0 0 0
258 1 5.391627486966773 18.18304138588136 12.614088047002879 0 0 0
252 1 9.542480067520554 15.92945810779492 12.392650575817928 0 0 0
263 5 0.27409353416062276 11.743765051093982 11.218610672040867 0 0 0
249 5 8.132268871699967 16.056813243160228 13.101974200451737 0 0 0
649 5 9.977033472665148 17.434991445067133 12.398817726371803 0 0 0
265 5 5.175464245935009 10.02971000792815 10.803863564962409 0 0 0
271 3 5.854708782524937 10.796958671037384 13.174280548824834 0 0 0
62 2 7.386702673016873 13.393569851789671 13.571491407004094 0 0 0
280 5 0.8474065709858086 10.815603827430628 15.528225965563665 0 0 0
309 5 3.926948699668805 14.11471564701805 14.458184214945764 0 0 0
277 2 4.116397590358344 11.727676400433488 15.503887909304728 0 0 0
269 3 9.18328398473706 14.440695964212264 16.299683010075345 0 0 0
93 3 7.569398440923791 12.934166765446026 14.778344318855764 0 0 0
106 1 5.519143277231763 10.946318998231275 15.006224038230703 0 0 0
73 5 6.074671744033436 18.11267819797081 14.094272264708078 0 -1 0
272 3 8.2099261778325 13.6212163023797 15.877380270471322 0 0 0
274 3 6.937832415490474 11.924948494640343 15.58600068330288 0 0 0
301 1 3.0898083770941795 12.846164613116864 14.836926052568126 0 0 0
297 5 2.0338601564577545 13.295968286800203 15.905695485556393 0 0 0
296 5 2.3470423684933053 19.13774081826314 15.251401534437672 0 0 0
276 5 4.796946603756565 16.686464485794247 16.50988288226204 0 0 0
287 5 2.469678319184055 12.323511781834178 13.45934801523368 0 0 0
278 5 9.675280432022307 16.86729672135486 15.281427879473744 0 0 0
283 3 9.425015844529291 14.529567474643736 17.696939474307513 0 0 0
285 3 8.80524538168867 13.641214285484722 18.622806558282498 0 0 0
308 5 8.422179380205558 19.44215698606421 17.86312466061255 0 0 0
281 5 6.680202182747722 17.02455762533337 17.940790320937488 0 0 0
282 2 4.377821414312334 16.98696603346538 19.187716419023502 0 0 0
122 3 5.98109182175577 10.3111308376518 19.176283190345817 0 0 0
289 3 1.8512585656263645 17.245306319042175 18.86825667390443 0 0 0
302 3 8.262262954627253 11.225742517929437 18.61930981200107 0 0 0
304 5 9.515619016186223 17.275070169166852 18.098031637826843 0 0 0
310 1 4.270361301505144 11.249071341746822 19.61662202706164 0 0 0
300 3 8.050883319252362 12.457579688572128 17.99552251470854 0 0 0
298 3 1.9340309417601964 18.52186122216197 18.208292891617653 0 0 0
273 2 4.673748675209849 19.06824787984366 17.78757399124536 0 0 0
326 5 3.8513679085714663 11.872024340457587 18.20442391133474 0 0 0
295 3 3.025059837392685 16.642672521446258 19.32055786232228 0 0 0
143 3 2.9747852277893747 10.014036815379338 19.988573485832944 0 0 0
293 3 0.6518602608947195 16.527385991934054 18.943282765265263 0 0 0
290 1 5.17361954529837 17.53404128998187 17.7750095964745 0 0 0
292 3 0.7678036759172336 18.810095937601396 17.446420458341283 0 0 0
306 1 3.214567017974645 19.82094821420786 17.99236979223458 0 0 0
267 3 7.637607751069577 12.543991207151633 16.671415001455703 0 0 0
286 3 8.73199739829218 13.898806545082895 20.027213002826215 0 0 0
120 3 7.419482138262009 10.592419668079454 19.466938931635287 0 0 0
303 5 6.30016025517282 15.006165639350026 19.725820681993117 0 0 0
706 3 0.6067623573845413 15.372777920150604 19.80428393323901 1 0 0
711 5 0.4542606417792081 11.135181040336644 19.573991980039054 1 0 0
294 3 3.0002094734361666 15.494486896499646 20.08751411548524 0 0 0
319 1 5.510602114093361 13.645085193885313 22.760913277023764 0 0 0
527 5 0.8186751835024436 10.132507767382195 21.919679433086056 1 0 0
311 3 1.668155787744068 13.759788772936876 21.3728410698458 0 0 0
330 2 4.967102927919403 19.49960118493298 21.70357971294308 0 0 0
331 3 2.420764812919577 12.582104639009877 21.080369031701803 0 0 0
332 1 6.548240928090903 19.317525783210378 21.708335636991215 0 0 0
329 3 0.5719254292618371 13.906609364924645 22.4447394206704 0 0 0
313 3 3.7639951806627674 12.750765718269639 20.73041326611729 0 0 0
314 3 1.6855973218082787 17.00464050811838 22.34220431125719 0 0 0
333 3 7.900120079159301 16.8690182511266 21.317198775325704 0 0 0
315 3 3.942433838337397 16.196287417587474 22.299428123541965 0 0 0
284 1 1.5944380877339759 10.903338792985757 20.72198026938192 0 0 0
327 3 2.9053069459263288 17.373381383238005 22.0527329596406 0 0 0
299 3 7.032020920088758 17.521892956211303 21.9626339393654 0 0 0
316 3 7.059572789762585 14.722736187753828 22.47670199599542 0 0 0
335 3 6.906608302801952 12.397385538797279 22.983674674771535 0 0 0
325 3 9.733231591235937 13.509959134383136 20.996402583492014 0 0 0
288 1 7.582315571518854 15.211439394914557 20.70161656283205 0 0 0
317 3 7.758855826038214 13.447013312573002 22.727346324229167 0 0 0
321 3 9.133989147921074 13.332644558610356 22.34770544157645 0 0 0
322 3 4.4862402128586885 13.884105295344192 21.23417370533478 0 0 0
323 3 3.9578996876134163 15.255943523767321 21.134709437330113 0 0 0
324 1 3.6063331649575314 19.131851612840805 22.46052661881027 0 0 0
320 3 0.6277828646889877 16.64107393695508 23.020532090861874 0 0 0
305 3 1.78466205530078 14.775788982842561 20.37567556103849 0 0 0
135 2 7.27556020470733 19.89421969896732 20.32623574462395 0 -1 0
328 3 4.653955870650047 16.23337087387563 23.443876350919396 0 0 0
312 1 6.548854306548351 16.32074396041719 23.38031817704218 0 0 0
366 3 9.989756118891492 12.922735865209807 23.56613953781703 0 0 0
337 3 2.936101660015804 13.049591291429232 25.475476707959704 0 0 0
334 3 1.335247555958254 13.988313096382099 23.908497811903608 0 0 0
340 3 3.464929480525071 11.892390752863001 26.079393552607915 0 0 0
358 3 8.347372130907944 15.757421062753021 26.58478489189906 0 0 0
342 1 5.13732919417356 16.994190617278488 26.101471576545585 0 0 0
351 3 0.6737148856030868 11.923163172716418 25.163873602987845 0 0 0
339 3 0.9681928526847514 16.260609460719216 24.355456374248277 0 0 0
350 3 9.4098519887195 11.1478434509993 26.48176717836834 0 0 0
352 2 3.8968260811802695 18.861265443381292 24.209092405383803 0 0 0
372 5 8.106836724658294 18.49567471451982 25.779463963228693 0 0 0
355 3 3.9100865688328286 16.626009306098062 24.674947211230293 0 0 0
348 3 3.6767771242447855 14.302471342091925 25.71255970194811 0 0 0
343 3 3.057974797427577 10.618208378053783 25.790148481607428 0 0 0
347 3 4.7868196875481415 14.240871393893649 26.663958519983275 0 0 0
345 3 3.165262145753149 15.403784339934276 25.029529054929686 0 0 0
346 1 9.091067102327052 11.835437079984207 24.739569389223917 0 0 0
359 3 9.278640577852519 14.507751463328484 26.48675336117948 0 0 0
748 3 0.7158222323389811 11.003044875699288 26.203539003365258 1 0 0
362 3 1.8860586992126294 15.208619222246957 24.311542406693995 0 0 0
353 3 1.680999859897917 12.92529370177095 24.85518114733788 0 0 0
318 3 3.2814545176422953 17.96116745024856 24.84790628282774 0 0 0
380 1 7.4276637188388595 16.998630000603562 25.358341032431582 0 0 0
349 3 1.971694926094913 10.5479166279616 26.711533331110864 0 0 0
365 3 2.7980802984906257 18.311020316514163 26.092203713493834 0 0 0
360 3 7.3787078113820215 11.335490940382556 23.939102698170572 0 0 0
386 3 1.6107422097121027 19.11061899999169 26.499673471173438 0 0 0
800 3 0.2977809630913975 18.510964820722112 26.67324259908034 1 0 0
361 3 6.958561017697953 10.091667241067505 24.3061952728734 0 0 0
338 3 5.733576909057193 15.366160173801786 26.619104492903205 0 0 0
167 5 8.381704747177526 17.076739625270967 31.60393782861208 0 -1 0
370 2 6.498371054164367 10.69928598263952 30.796753148988927 0 0 0
387 3 8.70462942228977 13.450148598341398 27.32859174287182 0 0 0
375 3 5.894333475124322 11.06683958164645 29.70629271280373 0 0 0
374 5 3.298941841877579 18.18478460155245 29.55620016362171 0 0 0
373 3 9.417298595373557 14.30937298597588 30.605275821679943 0 0 0
368 5 6.764911442310712 15.486392643776519 30.714830899905134 0 0 0
369 1 8.28447661321834 15.784260744471233 30.69148792734786 0 0 0
384 1 4.333810441259124 18.84915275260579 28.46789266576076 0 0 0
341 5 5.832396854712564 18.65041122749894 28.963054386546503 0 0 0
385 3 8.845819560130664 12.081796771785104 27.44274566935114 0 0 0
356 3 4.153492753314647 11.934625567593196 27.279100909558522 0 0 0
378 3 4.7484080549417875 10.412891520888612 29.221621165308107 0 0 0
776 3 9.224262500111664 16.227032788383195 28.940917206352314 0 0 0
357 3 7.039133367497844 15.067555897353973 27.040311142067086 0 0 0
382 3 2.4919272581417977 10.45012780463331 28.03747083275892 0 0 0
377 3 3.8003899146008586 11.073103827771751 28.285970096480902 0 0 0
376 3 6.783345169719839 11.804569693229148 28.854655917251147 0 0 0
383 3 7.953856533198436 11.24129689833309 28.304255742021503 0 0 0
388 3 5.01758898196451 13.116085543997386 27.506223357489137 0 0 0
379 3 6.312768824890236 13.030852913833114 28.158782170837522 0 0 0
364 5 0.7941702738962597 15.795903096538106 27.700840431504385 0 0 0
381 3 9.147126278811305 16.564885354975846 27.621680958099528 0 0 0
371 3 7.355666891568137 13.92391450438815 27.762819088764534 0 0 0
367 1 9.82107176523887 11.276197089422835 31.281866665700726 0 0 0
363 3 3.780346146030491 17.888002838157515 27.009495791264577 0 0 0
769 3 9.824628539941767 13.072131759939731 30.91765964631532 0 0 0
389 1 16.22367078735148 9.431632651331167 0.7742240707689376 0 0 0
390 2 13.116481235382551 3.936854074763021 0.8927293701023515 0 0 0
391 2 14.73739397057492 3.81038389068771 3.269584383910221 0 0 0
392 1 11.902666636409077 5.002789104125673 1.0189639244249484 0 0 0
393 1 16.389710198364046 6.507904427000405 1.5450739891295733 0 0 0
394 1 19.426323676709167 1.44928922112343 1.1763603492036907 0 0 0
395 1 13.998401274913439 4.74736219361477 2.06864691836865 0 0 0
396 1 12.236020257054395 0.6069334013201055 1.00644998041912 0 0 0
397 2 17.837547987290243 9.378930369084634 0.35656621401837896 0 0 0
398 2 16.803276578767782 6.456791397262984 3.1485333189529356 0 0 0
399 2 19.42510260096186 7.547110647011845 3.53982347294221 0 0 0
400 2 15.211020779846855 5.4471854423465285 1.349727334619221 0 0 0
401 2 17.56353968892908 5.998668232654529 0.5319934726194795 0 0 0
402 2 10.679510070417768 1.0350003568521673 1.3301665498598894 0 0 0
403 2 13.275477710044967 0.7995170564762433 2.2416096817808437 0 0 0
404 2 15.861174689954805 8.0294137771435 1.3758415925806418 0 0 0
405 2 12.750384081324997 5.82667216241341 2.266923630172961 0 0 0
406 2 18.858520283103225 4.970956142139497 3.547557873281537 0 0 0
407 2 10.59490090966502 4.220255233904466 1.3406653681514236 0 0 0
408 2 17.889472533399317 0.9005741476090674 1.530119822312919 0 0 0
409 2 19.578291165049624 2.9536975338515576 1.8532380788888823 0 0 0
410 1 18.290339479758934 6.385731204699356 3.918564525786941 0 0 0
411 2 15.2920818216566 0.6467102047499786 4.102144545674271 0 0 0
437 1 11.337662821825049 9.40035888505058 4.463535631156347 0 0 0
439 2 10.315527313603654 8.153524636220414 4.493834574201262 0 0 0
412 2 12.148355153448291 6.313580808081771 5.160976237631824 0 0 0
413 5 19.582729630031203 0.17087039822869646 6.983649625339797 0 0 0
438 2 15.267198034586126 9.318113956147316 4.53679802752788 0 0 0
414 2 18.1812087803072 6.924990580367982 5.553607871614842 0 0 0
432 2 14.54117644054044 4.919273086202281 5.876429577682395 0 0 0
431 2 12.706935466702634 8.92813186942687 5.044259505711449 0 0 0
430 1 19.106921401648 0.8207572089861276 5.5815010339200635 0 0 0
429 2 14.29192182884151 7.377279655539316 5.9973508157792725 0 0 0
428 1 16.00903744771855 1.2506248658200578 5.446389604957351 0 0 0
427 2 19.57319699557947 2.340449125513025 5.389397430363428 0 0 0
426 1 13.489057533246092 5.993098419635658 5.9997188969174395 0 0 0
425 1 11.947798668735107 2.4997943069432615 5.999036635587131 0 0 0
424 2 15.950664219935142 2.8284780946460337 5.315160140817071 0 0 0
423 2 11.124057282667952 3.9112624724045286 5.923246031621394 0 0 0
422 1 14.180891796441966 8.925544089505209 5.711862803255095 0 0 0
421 1 14.555249542004082 3.667167281994952 4.849048544121488 0 0 0
420 2 17.504548081684614 0.5792520654313487 5.562123253598246 0 0 0
419 1 19.103680626886078 8.328215320024434 5.000230318280985 0 0 0
418 2 13.247924114027153 2.7585888430957572 5.002516998893033 0 0 0
417 2 18.35429425692216 9.742016139029035 5.013800719651319 0 0 0
416 2 11.502734231859403 1.0432606841355678 5.665658250954926 0 0 0
415 1 11.074246569512642 5.506961022712446 5.997774994747077 0 0 0
433 5 14.350813949026557 9.697472704057471 7.064261181022064 0 0 0