(written by ASE)

607 atoms
5 atom types

0.0                      20  xlo xhi
0.0                      20  ylo yhi
0.0                     120  zlo zhi

Atoms # atomic

     1   3      3.3643197178283395      4.7818060410992675       4.037556401187123
     2   3      2.1967246706940937      4.5556172584461567       3.671936026451462
     3   3      6.4798076232692043      1.4989062540782381      7.2396266668286948
     4   3      5.8343539127310819      5.2243140033384847      5.8461728831629216
     5   3     0.19053879605042406      3.9055301242432656      5.7891963242841697
     6   3     0.73175146881460418      4.1509588728209268      7.0428391647037785
     7   3      6.5751972192410699     0.61562808381370782      6.3703347694802943
     8   3      8.8776736817422215      5.7240079318553736      6.8904190734132698
     9   3       2.064071355781353      6.0908714693854922       7.004296237924736
    10   3      3.1790043338619611      5.4083905726181003      6.7441980354798421
    11   3     0.65149423336421952      1.8318008459856594      7.7135658851874851
    12   3      1.9248034774131288      5.5251361883224845      9.6461388479809749
    13   3      3.6516252141964567      4.1892949078061674      7.4023772214421193
    14   3     0.63123778215493132      5.5590029354874435      9.0425184629219633
    15   3      6.4654941756584625      3.8103871545445394       8.559330925220987
    16   3      2.6750750900448801      3.5676468891025204      8.3389117837068554
    17   3     0.46949085563981929      0.5683521440600201       8.434389510084884
    18   3      8.6484540168818249      6.1342807433957445        9.41187598116408
    19   3     0.91365299460041627      5.4644461726229645      7.5686181984605927
    20   3       1.388061013827355      3.1243674850525038      7.8069064359255975
    21   3      8.4649699419220568      5.9395660922830595      8.1392014608828394
    22   3      2.7441781838290513       4.287586975603273      9.6318209906613355
    23   3      6.3728572808048645      4.2848917303907204      9.8132516525956461
    24   3      6.2906491771417627      2.7101099377305311      7.7375850584521597
    25   3        3.66790944256566      7.5871442368197783      11.322748053023819
    26   3      9.8971493615864912      6.4832904837886529      13.972801554655916
    27   3      5.7251490795154734       9.220028273985001       12.47530874409717
    28   3      8.9837424655303906      1.8848815289346059      12.837680816563385
    29   3      3.1677325591816108      7.8141176555499445      12.604001763738061
    30   3      9.7789208423791827      7.2602414686520298      12.960313779773433
    31   3      9.7236170024115971      8.1708941653456932      11.881622204101987
    32   3      3.5052486556953677      3.9891021157895534      10.904811384387674
    33   3      2.8570559221897458      8.7746318608838685      13.689581912446862
    34   3      2.8736018117216151      7.4224463579109612      13.934037728106439
    35   3      8.5626492780900243      2.9548299534700648      13.717439110626714
    36   3      8.2476580868083378      9.7019640164955074      14.117227777797023
    37   3      9.8732797946237802      2.6925190057974495      15.920817071334305
    38   3      8.7029282103660019      3.1019074193222829      15.169257437069795
    39   3      1.7312213352359596      6.8043239713278938      16.549762938711698
    40   3     0.54301799902362613      6.8468662562241995      16.903336754371956
    41   3      7.1739473693343836       8.901730401346736       18.91691526614936
    42   3     0.75714632784573865      1.3061240996659471       20.56308485801949
    43   3      4.9416614454303129      7.0208362631198682      24.354586695396112
    44   3      4.3598704972121709      9.1763749729111606      23.840633861290375
    45   3       5.431507156819956      8.2938293404267753      24.433753725939301
    46   3      5.0660018338963866      2.0028759616374194      24.829351347795566
    47   3      9.2519177023547936        9.85033388650813      21.084460343881453
    48   3      1.3102120393684649      7.0347342153560017      22.404193939457095
    49   3      3.6917245104465608      3.3570606307128426      22.631963429039246
    50   3      4.4581729377815158       5.947705487060543      23.992479589152058
    51   3      3.0931398922112106      8.7619356908301036      23.591895178039064
    52   3      3.9400967987297486     0.58674416214576675      22.294225787125974
    53   3      2.6576062493016854      2.6994257801663588      21.974579146797147
    54   3      2.0213226716960153      8.0455609704827289       23.05969985088073
    55   3      2.0901010413100463       9.401678863087481      22.813863996801356
    56   3      1.9333336549419908      5.6914786402666619      22.370674664036311
    57   3      8.1962116196901746      9.8429299444502938      22.038865099066012
    58   3      2.8113518423910961      1.2269933883161295      21.671981944317917
    59   3      7.3439533934404277      8.7447468387041791      22.079482297746367
    60   3      1.3860678882482862       3.368300650685065      21.713562614388945
    61   3      1.0618014079647993      4.7194173789347289      21.895578016907965
    62   3      1.8236471026031185     0.51718451466056159      20.962140910459844
    63   3     0.53463765583984468      2.6461723205345851      20.889541491447218
    64   3     0.13272735997836094      6.9629055021640252      21.579667738055512
    65   3      3.2794572725972371      17.856874969975259      1.8314479530983814
    66   3    0.071858452646486742      17.574084068183183      2.8124909419635014
    67   3      6.3828533942538357      19.484611408620612      5.6240412313252079
    68   3      5.8547087825249369      10.796958671037384       7.174280548824834
    69   3      9.1832839847370593      14.440695964212264      10.299683010075345
    70   3      7.5693984409237913      12.934166765446026      8.7783443188557637
    71   3      8.2099261778325001      13.621216302379702      9.8773802704713223
    72   3      6.9378324154904742      11.924948494640343      9.5860006833028795
    73   3      9.4250158445292911      14.529567474643736      11.696939474307513
    74   3      8.8052453816886693      13.641214285484722      12.622806558282498
    75   3      5.9810918217557703      10.311130837651801      13.176283190345817
    76   3      1.8512585656263647      17.245306319042175       12.86825667390443
    77   3      8.2622629546272535      11.225742517929438       12.61930981200107
    78   3      8.0508833192523621      12.457579688572128       11.99552251470854
    79   3      1.9340309417601964       18.52186122216197      12.208292891617653
    80   3      3.0250598373926851      16.642672521446258      13.320557862322278
    81   3      2.9747852277893747      10.014036815379338      13.988573485832944
    82   3     0.65186026089471949      16.527385991934054      12.943282765265263
    83   3     0.76780367591723364      18.810095937601396      11.446420458341283
    84   3      7.6376077510695772      12.543991207151635      10.671415001455703
    85   3      8.7319973982921795      13.898806545082895      14.027213002826215
    86   3      7.4194821382620102      10.592419668079456      13.466938931635287
    87   3     0.60676235738453954      15.372777920150604      13.804283933239009
    88   3      3.0002094734361666      15.494486896499646      14.087514115485241
    89   3       1.668155787744068      13.759788772936876      15.372841069845801
    90   3      2.4207648129195771      12.582104639009879      15.080369031701803
    91   3     0.57192542926183709      13.906609364924645      16.444739420670398
    92   3      3.7639951806627674      12.750765718269639      14.730413266117289
    93   3      1.6855973218082787      17.004640508118381      16.342204311257191
    94   3      7.9001200791593007      16.869018251126601      15.317198775325704
    95   3      3.9424338383373976      16.196287417587474      16.299428123541965
    96   3      2.9053069459263288      17.373381383238005      16.052732959640601
    97   3      7.0320209200887582      17.521892956211303        15.9626339393654
    98   3      7.0595727897625862      14.722736187753828       16.47670199599542
    99   3      6.9066083028019518      12.397385538797279      16.983674674771535
   100   3      9.7332315912359366      13.509959134383136      14.996402583492014
   101   3      7.7588558260382143      13.447013312573004      16.727346324229167
   102   3      9.1339891479210742      13.332644558610358      16.347705441576451
   103   3      4.4862402128586885      13.884105295344193      15.234173705334779
   104   3      3.9578996876134163      15.255943523767321      15.134709437330113
   105   3      0.6277828646889877      16.641073936955081      17.020532090861874
   106   3      1.7846620553007799      14.775788982842561      14.375675561038491
   107   3       4.653955870650047      16.233370873875629      17.443876350919396
   108   3      9.9897561188914921      12.922735865209809       17.56613953781703
   109   3      2.9361016600158041      13.049591291429232      19.475476707959704
   110   3      1.3352475559582542      13.988313096382099      17.908497811903608
   111   3      3.4649294805250714      11.892390752863003      20.079393552607915
   112   3      8.3473721309079441      15.757421062753023      20.584784891899059
   113   3     0.67371488560308679      11.923163172716418      19.163873602987845
   114   3     0.96819285268475153      16.260609460719216      18.355456374248277
   115   3      9.4098519887195007        11.1478434509993       20.48176717836834
   116   3       3.910086568832829      16.626009306098062       18.67494721123029
   117   3      3.6767771242447855      14.302471342091927      19.712559701948109
   118   3      3.0579747974275771      10.618208378053783      19.790148481607428
   119   3      4.7868196875481415       14.24087139389365      20.663958519983275
   120   3      3.1652621457531493      15.403784339934276      19.029529054929686
   121   3      9.2786405778525189      14.507751463328484      20.486753361179481
   122   3      0.7158222323389829      11.003044875699288      20.203539003365258
   123   3      1.8860586992126294      15.208619222246957      18.311542406693995
   124   3       1.680999859897917      12.925293701770952      18.855181147337881
   125   3      3.2814545176422953       17.96116745024856       18.84790628282774
   126   3      1.9716949260949133        10.5479166279616      20.711533331110864
   127   3      2.7980802984906257      18.311020316514163      20.092203713493834
   128   3      7.3787078113820215      11.335490940382556      17.939102698170572
   129   3      1.6107422097121027       19.11061899999169      20.499673471173438
   130   3     0.29778096309139812      18.510964820722112      20.673242599080339
   131   3      6.9585610176979529      10.091667241067505      18.306195272873399
   132   3      5.7335769090571933      15.366160173801786      20.619104492903205
   133   3        8.70462942228977      13.450148598341398      21.328591742871819
   134   3      5.8943334751243217       11.06683958164645       23.70629271280373
   135   3      9.4172985953735573       14.30937298597588      24.605275821679943
   136   3      8.8458195601306642      12.081796771785104       21.44274566935114
   137   3      4.1534927533146471      11.934625567593196      21.279100909558522
   138   3      4.7484080549417875      10.412891520888612      23.221621165308107
   139   3      9.2242625001116636      16.227032788383195      22.940917206352314
   140   3      7.0391333674978451      15.067555897353975      21.040311142067086
   141   3      2.4919272581417977      10.450127804633309       22.03747083275892
   142   3      3.8003899146008591      11.073103827771751      22.285970096480902
   143   3      6.7833451697198388      11.804569693229148      22.854655917251147
   144   3      7.9538565331984357       11.24129689833309      22.304255742021503
   145   3      5.0175889819645105      13.116085543997386      21.506223357489137
   146   3      6.3127688248902372      13.030852913833115      22.158782170837522
   147   3      9.1471262788113048      16.564885354975846      21.621680958099528
   148   3      7.3556668915681378      13.923914504388151      21.762819088764534
   149   3       3.780346146030491      17.888002838157515      21.009495791264577
   150   3      9.8246285399417665      13.072131759939731      24.917659646315322
   151   3      19.821654017775575      1.6738230254387843      6.5608490904311427
   152   3      15.018324583745757      1.0531788394055581      6.6647787619035803
   153   3      14.813998099282733      2.1804469643982616      5.7881953188511197
   154   3      19.337276885425219       3.273652209206888      3.4044047182706265
   155   3      19.486964339207137       2.658590583206855      5.7117394353826754
   156   3      17.549216025855067      1.7971580305326829      4.3574700524201653
   157   3      17.492238242170078     0.54267379926723847      5.0042314044349823
   158   3      18.750421438975888      2.5722936652666255      4.3694804607564901
   159   3      11.675678641380951      7.9141629155174753      5.5074436739332793
   160   3      10.945327988005092      6.7319295362563603      5.6634353972153608
   161   3      12.977833400350489      4.0208807825008197      6.3312656027342626
   162   3      14.187768066560039      3.2725340447615769      6.4429966302102084
   163   3      19.309531683942204     0.35657588333324025      6.4395635929309343
   164   3      10.294015250258578      5.8386435818557461      6.6248610614232994
   165   3      13.720150266996022      9.4459009973660475       7.040227362058566
   166   3      11.186935544350638      5.3211443124964575      7.7353302414598968
   167   3      15.133780066022096      1.1833490564526594      8.0880479977422208
   168   3      13.934286811683467      7.9930225969688076      9.2063359580457593
   169   3      10.986097120942759      5.7787105207797476      9.1152808047770275
   170   3      13.175447160274638      2.3554645201064734      9.0221006809990314
   171   3      14.878585542833695      3.5923641972732185      7.6252877691717025
   172   3      14.678723183681523       2.481804209318399      8.7506746723089481
   173   3      12.697151070633996      8.1150073305882522      9.8517963185154702
   174   3      12.346546192312736      3.3560734864944397      8.6238483386378331
   175   3      10.001028150628704       6.575055226612518      9.8082375237517976
   176   3      18.209861096744323      4.5897701240601938      9.2189891696585313
   177   3      19.385218857868701      5.4356932763257149      9.5836253308284007
   178   3      12.253082643050739      4.2834559260855833      7.4737465939024084
   179   3      14.285150915943623       8.622168229455653      8.0701476051329983
   180   3      16.902946345690744      2.6366041758260335      10.062605160040878
   181   3      17.118116177964222      1.2868898261263919      10.148626159795551
   182   3      17.895731812011118      3.6715067171829441      10.246579743956168
   183   3      15.503500975625533      2.9982260334957238      9.9117963198242016
   184   3      11.445284526765594      8.3940613301142424        10.0784707548023
   185   3      13.765535478504455      9.1014667042860058      13.100410301528004
   186   3       10.34012006286569      7.7972388626971822      10.607989092134442
   187   3      13.674039420761135      8.0924118904072362      12.394447330403509
   188   3      10.642913443002371      3.6329121729964235      16.725837508454052
   189   3       10.63329114161238     0.50616018313916245      15.235222939223402
   190   3      12.871531862992748      0.1823564523223169       17.51094706915233
   191   3      10.844878597654802       4.946427523990387      16.333195856566576
   192   3      10.254168885427324      1.3386297543476176      16.245120546892384
   193   3      10.924857467335842      5.8529349497259444      17.519502385272606
   194   3      10.829900792599826      7.2568055604509363      17.736898785713258
   195   3      10.834662928364999      7.4649962091715816      20.134944689339825
   196   3      10.605729693653334      7.8834475497703149         18.867807030422
   197   3      11.327708092790479      5.2208373689603382      18.852811839114317
   198   3      11.355274908306905      3.0160221820400057      17.927086727572977
   199   3      18.915551179092947      7.8390902519177184      19.833722770816951
   200   3      18.493455155236266      1.7868161083775125      20.549782801064516
   201   3      11.959894632892485       3.904922584616719      18.745097420328506
   202   3      11.059864723939798      5.9811768602220763      20.065557467615761
   203   3      19.514378216416407     0.73282751782793643      20.112713657985104
   204   3      18.237758586009264      7.0123292078758626      19.212641458498737
   205   3      18.926488112378124      4.5185229082714908      20.677320251648023
   206   3      17.384326934552256       2.353144822899607      24.065835974480432
   207   3      12.060661800702857      9.7247652543555336      22.065745043541874
   208   3       13.54700444866037      0.5135286750757686      20.988661271806333
   209   3      13.124745886081115      1.0552098132866377      22.222862485665615
   210   3      13.929367532825747      2.1305557882133073      22.646072089339086
   211   3      14.770538585914467      2.3630415284359021      23.640592490557683
   212   3      16.137788996159617      2.4913138215494102      23.844077633086343
   213   3      16.052203028220028      1.2125160642101169      21.339685231062955
   214   3      15.008500822385313     0.36166319735642105      20.917669658523128
   215   3      13.242943412385968      9.6432799543823506      21.308946696540872
   216   3      19.899695367586975      5.4179567050415534      21.313502479470802
   217   3      11.419913480190857      5.6110194888210563      21.319976162103266
   218   3      17.453445255320119     0.95976405937079845      21.110611199622067
   219   3      19.582379241326219      8.2400559201284835      20.990960646160563
   220   3      19.171265451246182       3.087027154224995      20.784152613091766
   221   3      17.526231252051439      16.147472121778598      1.1214663123062003
   222   3      19.327511199391893      17.582607646178371      4.0214867152529052
   223   3      19.182013808309783       16.39128489527976      5.9184011878780893
   224   3       18.41632064531079      15.157777619745762      4.0922114773641258
   225   3      19.320002897946832      18.530782355024101      5.0842415091881943
   226   3      18.666910808996391      14.022856518201214      4.8653570277467981
   227   3      18.989245064939141       16.31372561683499      4.5572792709374763
   228   3      13.971673366026637      10.772020088623586      7.0647799192271812
   229   3      18.663801465436805      19.831534269185145      5.3046195482069134
   230   3      18.545576552413358      14.106062304219728      6.2581992581632591
   231   3      19.394192819232231      17.689896538753619      6.3621384040542264
   232   3      18.805495990255434       15.38933902599682      6.8598020632152057
   233   3      11.854185596747813      15.147198366577276      10.275975867799342
   234   3      14.340078290496134      13.477124661287547      9.7262706978020965
   235   3      17.814265206694913      17.685876527904298      9.7450184945444036
   236   3      17.833663376450676      14.851675026586095      8.9690702915116454
   237   3      16.881729451425187      19.998383797561402      9.8996691937248045
   238   3      15.384386092662234      11.081021519409811      9.0168492545088181
   239   3      14.153248965601202      13.037116791460486      8.3880191297436433
   240   3      18.558390659961375      17.286653914767388      8.5491367084607184
   241   3      19.666760151266562       19.65452225566592      7.6554671762799114
   242   3      14.511333722975888      11.623836398589782      8.0693191085412863
   243   3      18.556848066920058      15.850532467012695      8.2113860772649296
   244   3      15.086736064093989      14.529488449637107      10.272215587505087
   245   3      15.281574659989873      15.987308248404608      7.6519605695891375
   246   3      19.239758906236936      18.247825937650223        7.64955856559361
   247   3      10.647527484635646      14.963393294192144      7.5008293669219555
   248   3      16.991425641556539      16.767549941738473      10.473398091345111
   249   3      17.781364152122968      18.928893943372891      10.319857565077381
   250   3      13.634746427930402      13.941107475692061      7.3847312778176253
   251   3      14.438233856392557      15.031771980821862      7.4179591713601276
   252   3      11.945136574914656       12.14651268448006      11.106798714321652
   253   3      18.305539074083445      19.196822382554807      11.710036730360194
   254   3      11.046143926979488      10.816677303280237      13.122890750284704
   255   3      11.622503577124499      11.436893092094971      12.061356509124238
   256   3      12.561054501855844      15.786035574514003      12.606637714378206
   257   3      19.394936227637537      17.050845135693901      12.455253109063275
   258   3      19.474645943349451      18.287799725979326       11.80830343736816
   259   3      18.149461193172613      16.408976948443154      12.670308206953244
   260   3      15.773486548627202      15.803475352688183       12.36524968800402
   261   3      13.691034290777289      14.744950540414992       12.46759443023684
   262   3      11.987057355521877      16.034707931246654      11.366895507368245
   263   3      14.782550815002047      15.192338935097851       11.52561896841879
   264   3      16.966961652594126      16.438572281976011      11.831747304245294
   265   3      13.934234492851303      10.204670483311327      13.874195617091097
   266   3       11.47884615590957      16.005240741756115       13.74755051333015
   267   3      15.504572942972942       15.37204648545142      13.730975864312118
   268   3      14.405422606903112      14.549614046221357      13.763184308020513
   269   3      18.188304761906561      15.590807756297318      13.871513155977922
   270   3      10.056147824856144      19.620568878724022       14.21583009659706
   271   3      19.561735528096094      12.767552440834589      16.605702375561439
   272   3      12.369494804680608      19.122088790172988      16.536280639459807
   273   3      16.839769010990373      14.034239497826251      16.146931953747838
   274   3      19.429377372331388      15.260350602281685      14.560184020721923
   275   3       12.76928034735402      13.145861305388218      14.638065875228154
   276   3      11.899363892459435      16.811686510227723      15.945346477939466
   277   3      14.120418644141894       13.50886377882337      14.743178854777554
   278   3      11.637823815407952      19.487718913613172      15.425662970388505
   279   3      19.637455265494079      14.906123703217853      15.909207404426592
   280   3      11.438289923859271      17.231158573983631      14.647927416764084
   281   3      12.639006408752929      17.689799264712612      16.759919863050314
   282   3      11.755055550748226      15.483094962241568       16.44968775453156
   283   3      19.285397849559725      16.019082883422012      16.820560189580643
   284   3      10.943453370639283      18.586669744887661      14.618553767076985
   285   3         12.286609497038      15.049939618142094      17.677271796041165
   286   3      14.549389786401095      12.726775236570019      17.774511535652593
   287   3      18.734399385842739      15.662011393351509      18.106612468149521
   288   3      17.873325638225054      11.801448197907341      19.176660555406411
   289   3      15.385921689970523      12.411969995278319      20.444150425571554
   290   3      15.456564222435054      15.948653830554447      19.516268802126838
   291   3        14.6013453746545      15.211176020805397      18.664570903653456
   292   3      13.846049484988638      18.247157683992448      18.850675258278315
   293   3      15.507860224357577      19.020786481040673      20.621741235376312
   294   3      12.386069160709516      12.052794445646173      18.669104824493438
   295   3      19.669628183223693      15.981973377676864      19.097394366962444
   296   3      13.172377413131422      19.518304410752393      18.803771604385958
   297   3      10.657092585353388      14.558537850196894      20.219474728982298
   298   3      13.796125301948026      11.881881579080769      18.746137460822421
   299   3      15.090557627387703      13.846930979129093      18.556617645015976
   300   3      16.006284027628631       13.25597344729756       19.50826934315176
   301   3      13.428329470506151      15.760640871752262      18.173170031629002
   302   3      14.521231921746471      11.461496118149947         19.872390652722
   303   3      14.766206093826264      18.048174432766952        20.0062652850803
   304   3      11.252545567601748      19.446105839346654      20.288723165306472
   305   3      13.397917069915835      17.248884988228454      17.923277914374918
   306   3      17.371224915435896       13.05585421716982      19.217145589782096
   307   3       12.62725124216634       19.89379118876062      20.079519533671494
   308   3      14.819464797918462      16.760441073846657      20.479970274669206
   309   3      10.850142401230309      18.168599443934617      20.600971694497211
   310   3      11.030987257541627      12.497541963605734      24.292488029441792
   311   3      11.206306980612041      11.115643784625677      23.964227566071379
   312   3      14.646898673784099      16.344933756073825      21.823139775306871
   313   3      10.069713475514455      15.200132015203332      23.559990444683066
   314   3      15.760515807011402      12.516506448603035      21.800976411121532
   315   3      12.200474443436029       15.44187327399378      22.118815972166871
   316   3      16.792007434818778      18.634271682677451       21.37485622054573
   317   3      14.154012120002797      14.062682213300103      22.632140238014607
   318   3      11.414814887182356      14.757621182429128       23.25217667846313
   319   3      12.213408394691696      10.800662679650495      23.092659443783809
   320   3       13.20058891841313      13.037592630630039      23.188975732937077
   321   3      13.436194066771598      11.657061978530477      23.072723936479544
   322   3      11.970020948039457      13.482691991197084      23.762086916137545
   323   3      15.548520304595383      13.666448377227422       22.51716166233512
   324   3      15.911568121163358       16.52215129339621      22.545632693232989
   325   3      13.665770087011053      15.317324071748033      22.221294986889948
   326   3      16.584175965605628      17.616170596585487      22.265969702742517
   327   3      10.545297238670654      16.980129010047516      21.059636332995431
   328   3      11.285478837466403      15.678770876659396      20.995380405572099
   329   3      17.867083940682672      19.521776417116669      21.239254751136937
   330   3      19.222398508280641      19.432512657298542      20.833903554757185
   331   3      14.271932882257852      10.276873725041451      20.777782110267943
   332   3      15.526978727067537      17.130572756660666      56.069419059865254
   333   5      8.7365966164859508      8.6143539603269055      1.1103847456312437
   334   5      9.2049157278334892     0.94079468669441446      1.2177534803905523
   335   5      4.0258996346592202      7.2335645939562498      1.1574996145139949
   336   5      7.7872686263086655      9.6069580159951293      5.6306368999584748
   337   5      9.3523355859436847     0.56492557458074533      5.7955725473905968
   338   5      7.0804399282278974      1.6242012021010546       2.897384949105918
   339   5      4.0910501232449379      7.3330088816952763      4.6525009547595531
   340   5      4.5983295415402736      2.4090354859765895      2.6378503725501048
   341   5     0.64128432638695154      7.9715897764032784      5.3272398899630691
   342   5      6.7589064972125534      8.3932505863554354       2.723746149714394
   343   5      5.7951231184812588      8.1227141128115719      6.2658685022980141
   344   5      5.1966650349432655      1.6918182319073549        10.3538456728249
   345   5      3.2384494341728498     0.65776684579785893      13.355981826948856
   346   5      6.2472752521520256      9.3533811752022142      15.892847492073368
   347   5      6.1223079001826575      6.9824868466071122      17.374211131633238
   348   5      2.5198460048914413     0.28543898060465339      16.148664634442607
   349   5      3.7586362500979424      5.1713791851956961      15.134892724829118
   350   5      5.9555497897257244      2.3723914658217899      16.268096900424997
   351   5      6.7324386072131448      7.3307204085567248      14.413315758721158
   352   5      7.3305915990601722    0.089613351116729967      16.904405400236346
   353   5      7.3486183276137407      4.3998445280340732      17.080751654374385
   354   5      4.6264483413762711      9.5492958104639136      17.859823455301335
   355   5      9.1418294374183056      1.3837899878395348      20.220490451163883
   356   5      6.4217716977401897       6.703066337774497      20.478026524252968
   357   5      2.7631270870062608      7.9247335157585805      18.914601530388289
   358   5      8.1807655705668232      6.4131645717965435      18.496168333905281
   359   5      8.3596112561704423      7.2775489166429708      24.535890888410545