LAMMPS data file via write_data, version 2 Aug 2023, timestep = 8, units = metal

3 atoms
5 atom types

0 15 xlo xhi
0 15 ylo yhi
0 15 zlo zhi
0 0 0 xy xz yz

Masses

1 28.0855
2 15.999
3 12.011
4 1.00784
5 18.998

Atoms # atomic

3 5 6.2545902243410065 7.43275732383159 7.195708613564026 0 0 0
1 3 7.503278711784477 7.50017707595176 7.5019574302795125 0 0 0
2 4 7.464100377433429 7.498061668096129 8.600197032788863 0 0 0

Velocities

3 0 0 0
1 0 0 0
2 0 0 0
