LAMMPS data file via write_data, version 2 Aug 2023, timestep = 22, units = metal

4 atoms
5 atom types

0 15 xlo xhi
0 15 ylo yhi
0 15 zlo zhi
0 0 0 xy xz yz

Masses

1 28.0855
2 15.999
3 12.011
4 1.00784
5 18.998

Atoms # atomic

3 4 7.054258763983541 6.958648595328708 6.753198163634478 0 0 0
4 5 8.749888627850964 8.000715722071279 7.127255063851719 0 0 0
1 3 7.503914377090883 7.6226549010959666 7.4889763466843 0 0 0
2 4 7.439243555574501 7.413391191696117 8.554936954752785 0 0 0

Velocities

3 0 0 0
4 0 0 0
1 0 0 0
2 0 0 0
