(written by ASE)

8787 atoms
5 atom types

0.0                      30  xlo xhi
0.0                      30  ylo yhi
0.0                     300  zlo zhi

Atoms # atomic

     1   1      11.031521097859869      11.400370466835662      5.4911714996795613
     2   1      5.5943726461633485      12.723603081587745      2.6348443439934432
     3   1      8.5628547234095151       12.09784318513648      2.0985463751235685
     4   2       5.634742741086523      4.9313142532192762       6.890976346601219
     5   1      3.6982806301860345      14.127432098837151      4.3625812943009876
     6   1      3.4312183317208791      13.935744865205608      1.3630735283062663
     7   1      1.8196505430540217      11.321229911865171       1.056073168251892
     8   1      12.348264973708945      6.7645020429913068      4.1911778341690118
     9   1        11.3787393597947      8.3769517188911582      1.7151975086186866
    10   1      9.1839285030908435      9.5947649494234923      3.6227052982319776
    11   1      6.9232866130851898      8.0458269550827648      5.2628288546312234
    12   2      8.0587728517631376      3.9446650544693647      6.4115563731318357
    13   2       6.718326518251498       2.559434171720596      8.1096441469474829
    14   1      6.1582975536103106        7.41357506676112      1.0620194849841271
    15   1      4.5272157633980799      10.043673357982339      1.4357325268206438
    16   2     0.77512212187259755      1.7621203046106897      7.8559764662165623
    17   1      3.9250673728887571      7.7622963402542382      4.9525808126406066
    18   1      1.0741933116160602      6.8605221516443766      4.4401172923631274
    19   1      10.298548192815833      13.636702183280242      3.8764240572890785
    20   1      10.492884161619106       1.441366837277867      3.2691850172772741
    21   1      13.139286526289411     0.93576013216608689      4.6506944633140463
    22   1      10.704822982443906      4.4723731939865417      2.9413864242457719
    23   1      7.6591754109848047      4.8612633855233831      2.2848727116352805
    24   1      7.7253689587584722     0.57366044244055903      4.6067622704268913
    25   1       5.961785501146597      2.3979284920338859      2.7262950055464827
    26   1      2.0335082135441356      4.1590908364653005      5.1804621828233408
    27   1      3.2648131718915865      3.5854575434892828      2.3542954289451861
    28   1      13.997951723028528      12.260967010002446      5.4177882234054611
    29   1       5.939957366214685     0.25240871965533174     0.59078595694860081
    30   1      1.4036503545785992      1.8815094277801392     0.38198587732615152
    31   1       1.127570884963458      1.4312912159431359      6.2478633195789577
    32   2      3.2143791815780962       4.217537249129462      6.3374393917669334
    33   1      7.9705834952781558      2.4387016312860066      7.0733139314577871
    34   1      13.139541017538951       2.262517546333251      7.5424823863195636
    35   1      0.5229072094685967      7.9616471472075192      7.2989259943476128
    36   1      4.1494393409731023      5.3692989998988576      6.9797510113121826
    37   2      11.223719041797509      11.153657104493146      7.0867822158364584
    38   2      12.672399568849725      13.989796439579564      8.3004104074863427
    39   1       3.033132705094697      9.6932517257637549      7.0549017226058828
    40   1      7.2355261173914807      5.3132377914419209      6.8280897723053409
    41   2      7.7339177352796487      1.3198281592551344      5.9984457447394499
    42   1      5.9828300588892711      9.8975948676609633      7.6833665115817542
    43   1      13.389285510190065      5.1352366848945703      8.2485302125215068
    44   2      8.3504854077382387      12.152330390358125      8.1452892211374177
    45   2      6.0743236790511999      11.512820630809962      7.1926665016185938
    46   2      7.0255524145896535      13.998825907362932      6.8532324200049608
    47   2      2.0330826374443802     0.34396592999794345     0.75589997100652817
    48   2      2.7231118798250211       11.20963005537566      6.9569796483134096
    49   2      2.7043677016179788      13.677415902820197      7.8561241319134849
    50   2     0.48124083743662843      12.566192896268655      6.6750993306322295
    51   1      11.299474599216083      7.2133062299341351      7.0884025831037496
    52   2      12.273544593906319      6.0446814347256863      7.5241036068958724
    53   2      11.774074408036812      8.5884863845286645      7.7777585493240284
    54   2      4.0361895703785002      6.6090585020180388      5.9939686213594152
    55   1      2.0977115211343187       12.75275966117322      6.6755623646747129
    56   2      9.8023983485302626       6.964836955534949      7.6939108439572763
    57   2      6.7925490437897613      9.0203405325634431      6.5241647742454907
    58   1      6.8267717350926276      12.761257288450112      7.8735974707452119
    59   2      7.6355732419195697      5.7341506984771868      8.3347980054349726
    60   2      4.4913601278993021      9.2840709107243651      7.7905283316602691
    61   1      11.477726729268458      10.104285582756267      8.2540184096124349
    62   2      13.373009683623472      13.747568201200199      5.7588672904841474
    63   2      1.7701264783388637      8.9374381642295901      7.6786629893340539
    64   2      3.7563180255880826       5.751440444479349      8.4730001461768882
    65   2      9.9454515455259447      12.570420578256202      2.7249105273105343
    66   2      7.2163877818900746      12.997255400774998      2.5073166073989483
    67   2      8.3672099080989266      10.624940356668645       2.757436584615327
    68   2      9.3034920284364766      1.9900875678386389      7.8244659474751597
    69   2      11.683232348244733      2.4697147474823176      8.2323888472816176
    70   2      13.770125779855919      3.7606402091765476      7.3970632560001768
    71   2      2.6059277761644126     0.78264017580634571      5.9902778223106932
    72   2      5.1895317939940018      11.207445395121129      2.3657693499831476
    73   2      4.9934200092700163      13.601697418107198      1.4050446504560488
    74   2      5.1163240789604476      13.275234130109258      4.0692854739778852
    75   2      2.6292946778391979      13.195502259854655      5.2250948396001267
    76   1      12.896357632261203       14.23848815463962      2.3387432506547796
    77   2     0.60095587677794882      11.677114641547721      2.0287248810282819
    78   2      2.8915706469842419      10.351122976991569      1.6960119544347592
    79   2      10.182558429203249      10.175509611635519      4.7591334200275455
    80   2      12.275432611605616      7.7647051698688703       2.941170571707417
    81   2      11.808380682496976      5.3033910665287918       3.859898563355963
    82   2      13.944685105508885      6.9664898034250307      4.7064485212394089
    83   2      11.388984353237735      7.2548843355596881      5.4926803327075167
    84   2      10.034751672253941      8.9192017047139043      2.3865131837304085
    85   2      7.4671289096722031       6.552221896302683      5.7631320343446664
    86   2      6.8096068258386113      6.2564267121415114      2.1335807242683487
    87   2      8.1685393720910646      8.6476835558147851        4.36160325813242
    88   2      5.4932274342727156      7.8486720274797914      4.3962244795813348
    89   2      9.1347501502147423      5.0003712116025554      2.9163550587695255
    90   2      5.1587376551692214      8.5908323838040168      1.8045254364025567
    91   2     0.27677772674098938      6.9985209112330207      3.0528136799919432
    92   2     0.45198267547519305      7.7357455167853892      5.6928971761679676
    93   2      2.6624173103938458      7.2424369827400712      4.0229213161146262
    94   2      3.2276299981053014      9.1150762586280507      5.5345132936785788
    95   2     0.95440679514946269       5.387087568071653      5.1073665203560035
    96   2       13.52320620760176      2.3446199798832978      3.8235364558324889
    97   2      10.584876491533134      1.3841347801527277      1.6844411556929446
    98   2      10.629870517576961      3.0173493348785567      3.6639785869421657
    99   2      11.661330575958836     0.61748762968403526      4.0769943170159948
   100   2      11.254303778815967      4.6132810691167521      1.4259474284808675
   101   2      12.619863450763093      11.337438535850879      4.9854264636798362
   102   2      6.5179057802366742      1.3229869013370081      3.7729407287735137
   103   2      6.7626650083481286      3.7898265987174256      3.0428973204079171
   104   2      9.1857893035098304      0.7794071791797279      3.8241997299325448
   105   2      6.2052731236079657      1.7665194634204751      1.1449289849194457
   106   2      13.784085729118836      12.926758118745283      2.0786326237531583
   107   2      3.9543409917379968      4.7349781201623848      1.4539871018401276
   108   2      1.1785344941621794      2.8518269065167239      5.4389373686143401
   109   2      2.5672987184463705      4.1398933924780197      3.6708873420403743
   110   2      4.3961196008880847      2.6142889771573041      2.9281120430769589
   111   2      2.2714134651592373      2.8197540915771655      1.3103864169887138
   112   2      12.984250206954783      1.4319553204621689      6.1621548926313157
   113   2       8.665984317801275      11.884131085069043     0.48934276490479806
   114   2      2.5237917348277352      12.741371483542331     0.75665650012631147
   115   2       10.37638383311219      12.867138633242686      5.3508482877049559
   116   2      12.365947881397441      9.3981506673178608      0.8258944282019911
   117   2      10.884827134914921      7.1662262284939198     0.72267914274883804
   118   2      7.5248488844208392      8.1228764199562882     0.43858134830625062
   119   2      11.771781342576057      14.210108919173338      3.4998136322075704
   120   2      7.8530084887758687      4.2435193574929455     0.78243329519874327
   121   2      2.9637021140325763      14.297079065381467      2.8828621465381956
   122   2      13.965012579443462      1.3691687216602768      8.6486183504332388
   123   1      10.416920780671278      1.8593572337033801      8.9936046568942221
   124   2      14.458057014113376      8.4769135273981178      8.5440473837976292
   125   2     0.53980570965876207      6.5468801143550603      8.1443089414581884
   126   1      8.9693534575530585      6.3439866492036527      8.9758356180263412
   127   2      12.850131477037714       10.42530301285719      9.1866697475887147
   128   2     0.33641670558817671      4.1628107576461275      8.9482196333882786
   129   1      14.974201353317294      2.8054578841031956      3.4521524212801906
   130   2      6.5504767247251827      9.7423581979417229      9.1995620051314493
   131   2      5.9738461532167086      13.036288168385948      9.2161388815990595
   132   2      14.897778130620424      11.815234282738034      6.6528711434635923
   133   2      10.174585373304943      10.228938702072801      9.1272130807491472
   134   2      14.705388933919416      5.9306534939163109      8.6832458439752003
   135   1      0.7728113152486924      2.6272987377199146       9.229642153181171
   136   2      3.9136275316944937     0.77290122385747773      11.455193908190484
   137   2      5.7851106054709671      12.893801529836736      18.089780798755356
   138   1      10.665218863939366      13.427517425901264       17.76111917560382
   139   2      11.868850942878717      7.5719712779008246      12.878135399082355
   140   2     0.27012350775801114      8.7499724187532077      14.399651634114031
   141   2      5.0284416627778565      5.3910395740176913      13.409012878202116
   142   2       14.83839681716786      12.797662212902289      10.815680858842926
   143   2      10.610195500503231      12.778469010576893      9.4959448941275859
   144   2      14.521293184108423      7.5190996765209732      13.206824818936315
   145   1      0.3985958103437513      5.6562200035079107      9.5269929380186706
   146   2      6.3606850810007218      14.417859438709675      11.326659919140182
   147   2      10.948462892032776      3.5181508442055769       17.78031100951582
   148   1       13.36363820967795      14.343403933763961      17.784414210877415
   149   2       6.286009314519605      6.0588142843607322      17.188583900573729
   150   2      12.218242735683777      13.298784714608635      17.368886168860652
   151   2      14.951220204858563      1.1667218556023042      12.750502515027261
   152   1      9.9857218013290829      4.1399514779903823      10.917909455859796
   153   2       9.836977903525284      5.1002187996896264      9.6853079857750366
   154   2      4.2403098322165542       4.562532178027852      17.128114933535283
   155   2      8.4644855763127236      7.3786293971661623      10.063983499022296
   156   2      7.2320822019158468       8.561815078641402      17.026755330885134
   157   2      8.8718585158496879      11.941751369296762      14.218831854103012
   158   1      14.067735932060428      9.4855093511928974      9.7434504926395711
   159   1      2.6427901574374992      4.2440020455953009      16.973444279015922
   160   1      7.7084782465919908      2.8640470303214642       12.11294105528702
   161   2      11.994190101602545       9.639418710825538      17.402979592300429
   162   1      10.552783641302121      5.1424586945557103      17.598125320179896
   163   2      3.5901245832933117      3.3422007517449597      12.405089359471082
   164   2      8.8664076277542723      13.296111889622189      11.865299801118104
   165   1      3.2970748937636998      6.2235893565538669        9.92862546711752
   166   2      4.4184552843638034       5.693649920784897      10.952190446207741
   167   2       2.996518832378209      8.6038823212743143      14.628217093265485
   168   2      10.956035527077468      11.500258205069656      12.651533190919872
   169   1      5.1517745921795353      13.748440877748086      10.407085423876703
   170   1      5.2935323832001115      6.4569325970129983       12.20510861412326
   171   1      3.2532764477503422       8.667827442614886      11.524454605198352
   172   2      1.8112617938987703      5.7201042074391557      10.375997549003774
   173   2      9.7996505378649736      10.581046402157524      16.296584437489106
   174   1      14.499532582044917      5.8433750194202796      13.368304916543241
   175   2      9.7015751859379833        13.2464351918647      16.444634066111899
   176   2      10.105974537599478      2.5910878834130244       10.38559191593904
   177   2      1.2625367856507212      6.4899459898395593      13.920967944287121
   178   2       10.19455677719629      6.1655759289607746       14.39758705521812
   179   2      14.283368324719047      9.0353747285236796      17.240936531570522
   180   2      12.243317959805582      1.7802263096157713      16.253272597872851
   181   2      4.7165769021187272      3.1810378556245578       14.86404961343546
   182   2      12.045723736478134      11.107826403020264      15.113891508604452
   183   1      12.805841329999955      4.2330017532718687      11.253837736261035
   184   2       10.61891780910554      13.766780532033161      13.893272319853041
   185   2      13.440498121730784      8.4651451385864611      10.916549796473335
   186   1      7.0561109697739584      10.331930955893915       10.66791930444824
   187   2      4.7458666820986748      2.8968912267045193       9.989771195109423
   188   2      13.508147917566825      2.8373992702811144      14.229550922204579
   189   2      1.9775681414365596      5.4138832403102901      16.000018640455341
   190   2      9.6963448625614106      2.2802289991460403      15.721985783896466
   191   2      11.795074555980129      5.7787468159987663       16.63706021446902
   192   2      3.1527889584588666      7.8439220136564325      10.043449725067758
   193   2      12.503759483781982     0.67768630341251979      12.992528656249167
   194   2      2.2054597040688702      2.8196798933799605      16.341027883535478
   195   2       1.387403708182861      13.960595480148744      14.700162018104344
   196   1      10.833736438669215       2.132679186431385      16.947103046964706
   197   2      7.4782378948051536      11.954296631937977      16.430575243647109
   198   1      6.3244984585382396      13.068256048965138      16.589360142067378
   199   1      8.0912555789862992      7.6490889233705088       11.66703446716652
   200   1      13.799988381049923      13.491839277549877      11.838332967278868
   201   2      8.3919625710907475      1.9460245868844426      13.356250914381455
   202   2       8.296536435873259      4.2577016015906999      14.610352837594156
   203   1      4.4129671415428202      11.381703383672942      12.007508060684257
   204   2      9.2255972391320729      5.2416309513887391      16.730993137003249
   205   2      5.1511947519118273      12.988502350191018      15.453909830011193
   206   2      9.3961409437902823      7.9004706225897996      12.631746856525975
   207   2      10.830617774016615      8.6956745751257589      14.991805033645413
   208   2      7.6019417596356726      6.8495424649560226      15.136467140787108
   209   2      2.6297162067108855         12.158425505996      15.981628536701752
   210   2      5.1287055309534626     0.86399072489420115      16.498087226355153
   211   2      13.732857560588808       3.927781044766387      16.656651592253017
   212   2       8.401571509249532      11.238093328820531      10.562819158666828
   213   2      12.508885049080078      13.883582147364102      10.975323470510043
   214   2       6.279084191419197       3.358912295638286      12.711658830545712
   215   2      13.298468856230086      12.582536956576087      13.113547601413442
   216   2      5.9985257033904826      11.168526353376684      11.652627416836607
   217   2      13.175479622705023      9.9107625620001052      13.111122926074009
   218   2      3.4538618549812798      10.231674677760264      11.329829106058067
   219   2       7.281672688800243      2.1653235835567264      10.627888275465541
   220   2      4.1406420835180384      12.814393490015052      11.197280827365715
   221   2      13.881197529926339      5.0982068393235025       12.07481779350652
   222   2      6.9373430047763573      6.5612816659119089      12.054170425508584
   223   2      7.3042801872831635      9.0389619120162639       11.61086150412965
   224   2      4.0799243666971821      11.642275984991048      13.558272316141982
   225   2      4.6216742920433562      7.9664961414900786      12.238487950646007
   226   2      1.9147043973118549      8.3095590809650783      12.269670697728605
   227   2      13.211338483738269      2.7079035942550802      11.578078020165773
   228   2      11.283400841452055      4.5627698536187085      11.786631638899577
   229   1     0.56980193210419472      2.5261272277397193       16.43589221776168
   230   1      13.595790136142194      2.5201423024401741      15.840721501068124
   231   1      13.316555445301415      5.4368612112443691      16.224315556899384
   232   1      8.7842236572955521      5.6964017702432228      15.225775105453534
   233   2       13.42716677080624      5.5898725859874698       14.56350305942895
   234   1       3.744862858708967      8.8008150692581655      16.148020724593888
   235   1       1.255099874175799       13.02262990983618      16.030116881882584
   236   1       8.947169894042224      11.912623078319356      15.893165600351642
   237   1      11.219869188458965      9.9388728774271673       15.93891179903428
   238   2      5.0642390074887373      7.8040349266452589      15.619740431643155
   239   1      4.0460348836120961      11.763296493915607      15.260482394934403
   240   1      6.4727885698648722       7.392236753597806      16.242789029034611
   241   1      5.5348948239679867      1.7818898536463486      15.282020433176053
   242   1     0.49536453406662162      5.4800762993359404      15.126220728554488
   243   1      8.4522468050169124      2.6526889815918597      14.806500381264911
   244   1      10.550010765653372      7.6409131539253181       13.79180508913862
   245   2      5.4519446955227187      1.0537423086581734      13.829777134571646
   246   1       12.39715851229851      11.277400208538001      13.515223940448264
   247   2      8.6398865415436958      4.1659732096339246      11.827011241930448
   248   1       13.57708248866394      1.8760282975413862      12.915868981383166
   249   1      4.8208525006542802      3.8129377173930146      13.365586612512809
   250   1      1.6398654920314155      8.0253330877411688      13.879804895272263
   251   1      9.7839973017832715      12.615902506873095      13.114083358202336
   252   2      7.0904220232329163      2.1600354797023607      15.576816941234227
   253   2      2.1812810909576665      2.4823565567141936      10.100132218160365
   254   1      13.239862121631218      8.3681893621995371      12.534983684984617
   255   1      3.5440499825031568      2.4396972403153945      10.992370392411003
   256   2     0.82311908000250156      14.014542110725673      17.301983237008958
   257   2      2.0995062856144511      8.9333779696768509      16.826995371517281
   258   2      12.614931665541912      4.6069468823113278      9.6877207869784847
   259   2      4.3476423010702909      10.427658803800323      15.953989141669517
   260   2     0.78584841827256569      0.8855197785679646      16.784554363237771
   261   1      11.695544453405963      14.015274333750233      9.5711371827400153
   262   2      4.2779015114962089       8.592508871546336      17.814703607283132
   263   2      14.430536630154664      6.4112504248647255      16.863686065606103
   264   1      6.1377874958149023      2.0881752114978536       9.551111814327264
   265   1     0.19240952092322841      14.441810269686343      13.744542367690263
   266   2      7.1858062245540024      14.459168404251844      16.356498828115388
   267   1      4.9271515862289412     0.10766692094614799      12.614690906383215
   268   2      14.762417705380146       1.504155194394865      16.269942827822181
   269   2    0.019386073875000326      2.6682943141687763      18.039781560079913
   270   2      10.363917658499957     0.95885477959079435      17.986536678093142
   271   2      10.841365511444774     0.34965874244867573      9.4370312462970869
   272   2      5.6948227666975262     0.53997475945346451      9.3055469405525439
   273   1      9.3934968520502196      11.677791874057498      9.3047912449361316
   274   2      14.064440939387417      27.132632501447091      3.9939450423868355
   275   1      12.452797569517635      23.705313436854858      9.2345267116888614
   276   1      2.8288164929389681      14.965404280707858      8.7933895667297097
   277   2      1.4946890174260727      18.545245355890241      5.2991207229140755
   278   2       7.463745168867705      21.006440147821749      9.2145534218444087
   279   1     0.14177136497477241      28.194430664798507      9.1204966913142069
   280   2      11.267767461263606      18.066762160884959       4.728151465439943
   281   2      9.0054327766376048       17.37131432618547      3.7484757392889492
   282   2      8.4814161162507524       25.16923530818233      0.9680436978277529
   283   2      12.986678310676433      18.857492904543086       1.058328850652785
   284   2      4.9354400121893631      19.776744634205894      8.8367910044032421
   285   2      4.7678360769278134      28.159118154412319      9.0659308316366598
   286   2    0.032747937456814334      27.500499957626527      2.4516280228638587
   287   2      8.0852395968982087      26.269886509112705      8.8054603243426115
   288   1      2.3605094713973878      22.515106660999916      8.7834448762502504
   289   2       13.28446421553334      17.652337435718806      8.9822709171538495
   290   2      14.717266494857666      28.033592556159132       6.458075477560973
   291   1      4.4956638091395984      26.614475863760383      8.8378377445628313
   292   2      1.3361378308165295       27.83431479369165     0.39212137689563775
   293   2      14.154305428319649      29.685152978741421      4.4201646004495743
   294   2      9.1559239676119226      18.800939962872974      8.9310344207343366
   295   1      12.776813543502627      26.608911256148446      8.8821440060468291
   296   2      14.881657452296423      17.451813626840515      4.3878513496347935
   297   2      14.432473201446195      26.780670207755559       8.795459008235655
   298   1      14.909962398091061      28.246330821114604      4.8676907776272458
   299   2      7.3400200797046873      16.064069215950997       5.298756845076646
   300   2      6.8874735469642996      16.234939820909368      2.7864639186723537
   301   2      7.9728576873957238      23.668425016123667      8.6939383114723388
   302   2      10.473850062768484      18.981791984999241      2.2578460348387495
   303   2      7.1429888082396946      18.904235303268337      2.1885155445797513
   304   2      13.933013709941324      15.425044315068284      2.8265313241723362
   305   2      4.8103503330304678      17.591271133065575      1.5988451236103389
   306   2      11.194781946502481      16.622345712336713      2.4305407654258744
   307   2      4.8582745649573278      20.187694189996154      1.6945388934929968
   308   2      3.5106229734631142      20.517643445689526      5.5158365843288024
   309   2      1.1696291566678798      21.624814956421755      5.2704224272645863
   310   2      2.8813011928167995      23.452073926985996      1.1353989397633697
   311   2      3.1886557681025023      23.075169423157824      4.6155527428154102
   312   2      4.4175615875053289       24.79181835151228      2.7630521670517609
   313   2      5.1502819642139963      24.678398720451685      5.4021836338215294
   314   2      5.5593013556100734      22.591269522774557      3.7963352325896853
   315   2       8.051283274323298       21.67136736179199      4.4566445265394989
   316   2      7.1308374587458907      21.575556336865564      1.9635417008320175
   317   2      7.6124844381255334      23.939335163163225      3.0753503978284527
   318   2      13.650214198291145      24.915475660398581      2.4524850995012537
   319   2      10.179478630457997      20.310895299266765      5.4545834413140284
   320   2      10.300648645385881      22.873001733396809      5.0358163060114336
   321   2      11.714481184119217      24.912570157888311      5.2381897106175401
   322   2      14.540395543077489      21.141708624921193      4.8252978897665546
   323   2      14.064220728488387      22.356919605084506       2.298760027927564
   324   2      11.747008860028915      23.349033026185094      2.9509009253456497
   325   2      12.482626583267569      20.562126401805969      3.0346539138421362
   326   2       4.097291662207275      29.705278615350306      4.2625333467713133
   327   2      2.6289044890440221       28.13639243405909      2.6402674595943054
   328   2      2.0214006164399168      25.743772247059688      2.0009733313243672
   329   2      5.0967889320242641      29.371314860856142       1.775812847925146
   330   2       12.55204899401139      27.278398358774574      1.7995455500979465
   331   2      7.7208606781264812      26.709058317264962      2.9936979819165401
   332   2      6.5775147739156719      27.039721895343007      5.5537903967374129
   333   2      7.3050214817966541      29.061521821838834      4.1920462294664418
   334   2      9.7779160080728484      25.076478939901051      3.4368740335772969
   335   2      5.1930252650199176      27.551853889461213      3.4536641612735872
   336   2      3.9401757752474467      17.957376534972028      5.9664289637257832
   337   2    0.024856243034758307      19.935636815474457     0.79249635600341872
   338   2    0.082190033366661197      23.849125910770038      5.6914193789277698
   339   1      8.4212246912852073      25.024617503402368      7.7811227588473377
   340   1      11.508641416274681      25.010500660996691      6.8057740701015224
   341   1      6.7391648957931967      27.556137869882757      4.0553432292182165
   342   1    0.034874785808702291      18.655342055769708      5.9076499717006712
   343   1       7.713055355000801      22.167080379327754      8.0783641775279644
   344   1      5.7021197528964587      29.300713325495785      8.2938332356759457
   345   1      2.2329519793576171      27.233431221822492       7.094320940688946
   346   1      12.992049233755475      17.687562953991275      7.3454666411481799
   347   1      6.2974284474191409      20.320471124104884      8.2413764604753599
   348   1      6.8825816506813338      15.637952604391629      6.8207915129540151
   349   1      8.3226753879260542      18.034831404782807      7.8015654822951666
   350   1      3.9508531871051633      16.393408843892416      6.5418566241799416
   351   1      6.1535290651146699      25.635766595650853      6.2110258533982812
   352   1      10.625020939231392      18.823241910631747      5.9991806233381153
   353   1      10.987284376063393       15.93538647312733     0.96184962634053761
   354   1      13.838494659148845      26.537277090357364      2.4689592196547778
   355   1      11.802486191232248       27.72749174784979      0.4911001814214373
   356   1      3.8608745567297458       18.93085210829765      1.9228546277537581
   357   1      3.0697621488792093      18.969468889597575      5.0358236745791771
   358   1      8.1046759531808146      16.056139382220707      3.9349451743993829
   359   1      6.4843008410526544      17.408208096549558      1.7738939268059468