(written by ASE)

9775 atoms
5 atom types

0.0                      30  xlo xhi
0.0                      30  ylo yhi
0.0                     300  zlo zhi

Atoms # atomic

     1   1      11.031521097859869      11.400370466835662      5.4911714996795613
     2   1      5.5943726461633485      12.723603081587745      2.6348443439934432
     3   1      8.5628547234095151       12.09784318513648      2.0985463751235685
     4   2      5.7464260107864087      4.8922722260189087      6.9907040382099268
     5   1      3.6982806301860345      14.127432098837151      4.3625812943009876
     6   1      3.4312183317208791      13.935744865205608      1.3630735283062663
     7   1      1.8196505430540217      11.321229911865171       1.056073168251892
     8   1      12.348264973708945      6.7645020429913068      4.1911778341690118
     9   1        11.3787393597947      8.3769517188911582      1.7151975086186866
    10   1      9.1839285030908435      9.5947649494234923      3.6227052982319776
    11   1      6.9232866130851898      8.0458269550827648      5.2628288546312234
    12   2      8.1918271601422852      3.9595854461383575      6.5926776897591362
    13   2      6.7104905783075797      2.5194012943341906      8.1850426306511679
    14   1      6.1582975536103106        7.41357506676112      1.0620194849841271
    15   1      4.5272157633980799      10.043673357982339      1.4357325268206438
    16   2     0.95061388404442571      1.5925562578917876      7.9081259515453866
    17   1      3.9250673728887571      7.7622963402542382      4.9525808126406066
    18   1      1.0741933116160602      6.8605221516443766      4.4401172923631274
    19   1      10.298548192815833      13.636702183280242      3.8764240572890785
    20   1      10.492884161619106       1.441366837277867      3.2691850172772741
    21   1      13.139286526289411     0.93576013216608689      4.6506944633140463
    22   1      10.704822982443906      4.4723731939865417      2.9413864242457719
    23   1      7.6591754109848047      4.8612633855233831      2.2848727116352805
    24   1      7.7253689587584722     0.57366044244055903      4.6067622704268913
    25   1       5.961785501146597      2.3979284920338859      2.7262950055464827
    26   1      2.0335082135441356      4.1590908364653005      5.1804621828233408
    27   1      3.2648131718915865      3.5854575434892828      2.3542954289451861
    28   1      13.997951723028528      12.260967010002446      5.4177882234054611
    29   1       5.939957366214685     0.25240871965533174     0.59078595694860081
    30   1      1.4036503545785992      1.8815094277801392     0.38198587732615152
    31   1      1.1302383143106514      1.4437412377399745      6.2495795623412773
    32   2      3.1114594339490367      4.1901359350664942      6.4416779458121924
    33   1        7.99294840017639      2.4377057402721949      7.1842779218895672
    34   1       13.03704120310168      2.1881955600897487      7.5338059776920545
    35   1     0.31646959651625367      7.8624468677816886      7.3232340931525455
    36   1      4.1716565968208119      5.3310681013367622       6.984368073927965
    37   2      11.183765891518274      11.071657900243373      7.0479877864874645
    38   2      12.832845195446529      14.061444890848513      8.3445418141274832
    39   1      2.9300276719166782      9.6618798499510277      7.0400681908491007
    40   1      7.2808372673348707      5.2647924099362324      6.8414664050400908
    41   2      7.7339177352796487      1.3198281592551344      5.9984457447394499
    42   1      5.9235902118538499      9.8916004591474245      7.6980258926878777
    43   1      13.560580274080456      4.9777847123275523      8.2769639867376537
    44   2      8.5025922764603354      12.058607107880368      7.8877403517272517
    45   2      6.0555520225394952      11.476481904347585      7.1239928550984803
    46   2      7.1424919758379888      14.020067405769504      6.8078225747441916
    47   2      2.0330826374443802     0.34396592999794345     0.75589997100652817
    48   2      2.6827690985550232      11.232892631926214        6.95559036071666
    49   2       2.424273686837997      13.724879941857639      7.9352975683877203
    50   2     0.44984559809298763      12.289755733529608      6.5500811174101345
    51   1      11.492521031650675      7.1629573619449438      7.1242845338203171
    52   2      12.696126731884595      6.1343997577960652      7.5272095938813877
    53   2      11.879771421518292      8.6516459508726395      7.7698982220291422
    54   2      4.0361895703785002      6.6090585020180388      5.9939686213594152
    55   1      2.0666011681746683      12.685365984237558      6.6854279943677106
    56   2      10.083519727320049      6.9322261684926332      7.8385839465668008
    57   2      6.6226296074851714      8.8854033788806763      6.5838906609449177
    58   1      6.9931715740525373      12.707761243634174      7.8043075717784838
    59   2      7.6479699920771136       5.813061652902288      8.3791576463767878
    60   2      4.3280139602592245      9.5186067191769297       7.909511087346015
    61   1      11.628485278587792      10.129368177674737       8.335989835280353
    62   2      13.373009683623472      13.747568201200199      5.7588672904841474
    63   2      1.6184628576271973      8.8693822622688057      7.6843990221669909
    64   2      3.6975593177909563      5.8972112942827213      8.3786428583719665
    65   2      9.9454515455259447      12.570420578256202      2.7249105273105343
    66   2      7.2163877818900746      12.997255400774998      2.5073166073989483
    67   2      8.3672099080989266      10.624940356668645       2.757436584615327
    68   2      9.0618082955919093      1.7722351725149657       8.219164764698645
    69   2      11.526252920417528      2.4685803465493281      8.0769195112707326
    70   2      13.769714153416022      3.6284281897869297      7.3993444155175645
    71   2      2.6059277761644126     0.78264017580634571      5.9902778223106932
    72   2      5.1895317939940018      11.207445395121129      2.3657693499831476
    73   2      4.9934200092700163      13.601697418107198      1.4050446504560488
    74   2      5.1163240789604476      13.275234130109258      4.0692854739778852
    75   2      2.6292946778391979      13.195502259854655      5.2250948396001267
    76   1      12.896357632261203       14.23848815463962      2.3387432506547796
    77   2     0.60095587677794882      11.677114641547721      2.0287248810282819
    78   2      2.8915706469842419      10.351122976991569      1.6960119544347592
    79   2      10.182558429203249      10.175509611635519      4.7591334200275455
    80   2      12.275432611605616      7.7647051698688703       2.941170571707417
    81   2      11.808380682496976      5.3033910665287918       3.859898563355963
    82   2      13.944685105508885      6.9664898034250307      4.7064485212394089
    83   2      11.388984353237735      7.2548843355596881      5.4926803327075167
    84   2      10.034751672253941      8.9192017047139043      2.3865131837304085
    85   2      7.4671289096722031       6.552221896302683      5.7631320343446664
    86   2      6.8096068258386113      6.2564267121415114      2.1335807242683487
    87   2      8.1685393720910646      8.6476835558147851        4.36160325813242
    88   2      5.4932274342727156      7.8486720274797914      4.3962244795813348
    89   2      9.1347501502147423      5.0003712116025554      2.9163550587695255
    90   2      5.1587376551692214      8.5908323838040168      1.8045254364025567
    91   2     0.27677772674098938      6.9985209112330207      3.0528136799919432
    92   2     0.45198267547519305      7.7357455167853892      5.6928971761679676
    93   2      2.6624173103938458      7.2424369827400712      4.0229213161146262
    94   2      3.2276299981053014      9.1150762586280507      5.5345132936785788
    95   2     0.95440679514946269       5.387087568071653      5.1073665203560035
    96   2       13.52320620760176      2.3446199798832978      3.8235364558324889
    97   2      10.584876491533134      1.3841347801527277      1.6844411556929446
    98   2      10.629870517576961      3.0173493348785567      3.6639785869421657
    99   2      11.661330575958836     0.61748762968403526      4.0769943170159948
   100   2      11.254303778815967      4.6132810691167521      1.4259474284808675
   101   2      12.619863450763093      11.337438535850879      4.9854264636798362
   102   2      6.5179057802366742      1.3229869013370081      3.7729407287735137
   103   2      6.7626650083481286      3.7898265987174256      3.0428973204079171
   104   2      9.1857893035098304      0.7794071791797279      3.8241997299325448
   105   2      6.2052731236079657      1.7665194634204751      1.1449289849194457
   106   2      13.784085729118836      12.926758118745283      2.0786326237531583
   107   2      3.9543409917379968      4.7349781201623848      1.4539871018401276
   108   2      1.1785344941621794      2.8518269065167239      5.4389373686143401
   109   2      2.5672987184463705      4.1398933924780197      3.6708873420403743
   110   2      4.3961196008880847      2.6142889771573041      2.9281120430769589
   111   2      2.2714134651592373      2.8197540915771655      1.3103864169887138
   112   2      12.970350798608337      1.2292801950940941      6.2519609512468808
   113   2       8.665984317801275      11.884131085069043     0.48934276490479806
   114   2      2.5237917348277352      12.741371483542331     0.75665650012631147
   115   2       10.37638383311219      12.867138633242686      5.3508482877049559
   116   2      12.365947881397441      9.3981506673178608      0.8258944282019911
   117   2      10.884827134914921      7.1662262284939198     0.72267914274883804
   118   2      7.5248488844208392      8.1228764199562882     0.43858134830625062
   119   2      11.771781342576057      14.210108919173338      3.4998136322075704
   120   2      7.8530084887758687      4.2435193574929455     0.78243329519874327
   121   2      14.976730321275721      12.248534671617975      4.1593340397318528
   122   2      13.669290426335328      1.3994786984774672      8.8561460464412427
   123   1      10.491717760675501      1.7247717228096042      9.0410483487410414
   124   1      9.1287217329791144      6.1569582503599447      8.9280535593303512
   125   2      14.444204926456603      8.3880645267013758      8.7084144269812054
   126   2     0.62666576802011686      4.0421652550673777      8.8417107530227028
   127   2      9.9255581510699979      4.8361130674316755      9.4005884445130494
   128   2       10.22682926776794      10.339826060027409      9.2868722567712361
   129   2      6.5930752658942868      9.8677925052057809      9.1549064339708721
   130   1     0.97460717065501723      2.5221538083094197      9.2547059339251199
   131   2      6.1740232219962845      13.211690726524159       9.203865532484917
   132   2      12.892238077525512      10.599002154212894      9.2163110254154734
   133   2     0.29500509445290213      6.4549880946639115      8.1750156029888679
   134   1      9.4432084897070467      11.740270009507597      9.2223786683666908
   135   2      12.795258584057626      4.6126044109199515      9.6576872263145859
   136   2       5.614330701546721     0.58836745252340306      9.4427274982522285
   137   1      11.695772687661602      14.034813720869563      9.5553442223004872
   138   2      10.501332197759208      13.022951506577165      9.1876903102357019
   139   1     0.50597982719919232      5.4933316868612865      9.5030488608341734
   140   1      6.1593007527138948       2.069782756160139      9.6464688797673332
   141   1       3.413310132044062      6.5071549954507502       9.927295742699938
   142   1      14.022072172663314      9.5467340723359175      9.7816286348526553
   143   2      10.918131453922706     0.25390319510764142      9.5375981878073723
   144   2      14.738039325885547       11.89143569772585      6.8739718211499996
   145   1      14.974201353317294      2.8054578841031956      3.4521524212801906
   146   2      2.9637021140325763      14.297079065381467      2.8828621465381956
   147   2      3.3178406798987115      8.1195311538735755       10.03289742044732
   148   2      15.026291514067076      5.7305791475545584      8.5995261233343516
   149   2      4.8594419005467451       2.987737787589428      10.000225191257076
   150   2       12.03383862018506      14.688770991663764     0.99537818098759345
   151   2      2.3207676510369546       2.587363914504154       10.12537424368537
   152   1      13.450706869463593      14.714045561521766      7.0631863096109102
   153   2      10.916314950244013      5.3541108791020431      19.373020637516639
   154   1     0.72102975310395223      3.9988635835586779      18.967632439198113
   155   1      8.0454397398173505       8.336860522416325      19.361474612417911
   156   2      9.7711000418667222      12.107770155609902      19.398924545965635
   157   1      5.6452701715402815      11.359940337405384      19.299746767495325
   158   2       14.45609563880754      13.426919403856452      19.161380651569424
   159   2      2.4716322804613737      8.7411779437258605      19.316617555789353
   160   2      5.6432230906771741      4.7402436166385238      19.482519403620621
   161   2        8.68895126967689      6.8907646582268214      19.619090791936227
   162   1      4.0564615882139057      8.6866842947333378      19.670136579678914
   163   2      4.5179313253660682      7.1991087185783176      19.091762148187165
   164   2      4.9174817935152486      9.8936360030066108      18.907221235433131
   165   2      9.1259203004401588      9.5667462661768479      19.556485032667357
   166   1     0.75806904141899623      14.181791194826028       19.05880222396555
   167   2      7.2568328132460653      2.1056628486798172       10.92815105371843
   168   2       14.58871785419721      1.2545180279572647      16.162059883441856
   169   2      4.3678812277726369      14.426983769207146      19.850186572277728
   170   2      1.6451487948045986      2.8596182936582748      19.738714046470086
   171   1      14.971499754048981      12.013936307992495      19.672680609277094
   172   2    0.061843306670361642      3.4140501616618031      17.636373151245579
   173   2      6.3589553623486275      14.607883694876987       11.56851727068247
   174   2     0.39661522336563432      8.2549223373546301      14.388297525973355
   175   2      1.6124972033532903      14.438669750549629      14.999958188972244
   176   2     0.15334538261788477      12.608967003612408      16.332616374245145
   177   2      1.6580385219203302      5.2494102160253409      18.416852724660938
   178   2     0.98553802768824872      10.668226805979179       18.39963913423772
   179   2      8.9318632628802668      7.0049286371558823      10.366133295106101
   180   1      4.9092990099101366     0.30119570348889563      12.607032514248225
   181   2       1.665393834359304      14.010591481919414      17.665873374116902
   182   2      14.149354658412397      10.991611515934901      18.677269556044493
   183   1      7.1392753303525511      10.434839861600068      10.625194338972939
   184   2     0.78658112886693676      3.2720964698165531      15.069651601007548
   185   1      5.2570078609227977      5.8936238283780549      18.377318291490283
   186   1     0.43200515777821685      14.304578594532385      13.945565405831466
   187   2       3.914905124005656      1.1117195987823694      11.592638826668148
   188   2      7.4396927717415657        14.1881519605795      16.690596266891781
   189   1      5.3263991994769526      6.6671304833790623       12.13808824679438
   190   1      3.3175020760330169      8.7856128724183939      11.514316172472325
   191   2      14.814314969510878      12.800512179983201      11.088471082120455
   192   2      10.888242740728348      11.468212146856947      12.897688273633516
   193   1      9.9363153965088173      4.0601640184635128      10.859795550080086
   194   2       3.155179906234582      7.5210324947921245       14.61718501251306
   195   2      4.7104848025314272      5.9833220667203495      10.766912675346939
   196   2      4.3857660205799522      12.926449570491879      11.163173365408213
   197   2      11.996840840913091      1.5956243233726406      16.386024756556925
   198   2      10.225812800265849      6.2251986821131418      14.498833384324724
   199   2     0.56193856911247697      8.7715544113839439      17.030449470533057
   200   2      10.269308968344117       13.76273571135726      14.191664822916282
   201   1      12.840202586203889      4.3690553158331236      11.257130202775032
   202   2      13.361813117701656       8.637999376007091      11.022696966118465
   203   1      10.492694498235931       13.17607552241274      18.471835622195822
   204   2      1.9546981229992397      5.3981312258802125       15.79763905513958
   205   2      1.3650807370965183      6.0260060374758826        13.5588654721201
   206   2      11.901648508926451      11.083715368733818      15.268870864131703
   207   2      13.195889901477175      2.4994895938376258      14.223943021147347
   208   1      13.290679008592676      9.6200135896172796      18.484930345716574
   209   2     0.74347776990504044       1.127218651542599      16.602863724842901
   210   2      9.3922124824709936      2.0862679426170287      15.838880927799773
   211   2      2.5498155759790131      3.1190059466424329      17.057215695808729
   212   2      12.018339996596278      5.6916339303975514      16.875309010294963
   213   2      8.6901242051358825      13.082996083585765      12.231619262039027
   214   2      12.475405529831406     0.59100013022617748      12.649872347455993
   215   2      10.723110589177965      3.5704587821491374      17.596140077455427
   216   1      10.547970739785269      2.1509948578558715      16.976764526387708
   217   2      7.3853183514159042      11.734929348320343      16.618455159628549
   218   1      6.3849677249587673      12.950457144184023      16.756855041862387
   219   1      8.2315833139087715      7.6091751013467288      11.679604363967641
   220   1      13.599870188103187      13.395095119396142       11.95433892863098
   221   2      8.3454040406773569      2.3117149119807552      13.467753965824224
   222   2      8.2211621293379071      4.4911443357471699      15.113170087197984
   223   1      4.5124024819991959       11.53619368761086      12.028002709276464
   224   2       9.488011244107998      5.7724521227755154      17.052346526849941
   225   2      5.2632648087814466      13.293775832942785      15.606679174616771
   226   2      9.3390701293656377      7.8527974075325755      12.898991373011198
   227   2      10.875010315418091      8.7568764695309831      15.102745594361407
   228   2      7.8820683679584604      7.1707696175135602      15.476989650608033
   229   2      2.7466754414758392      12.263533765038462       15.90270081167769
   230   2      5.0623839610762849     0.90977062463124048      16.493047314582341
   231   2      13.570362608919741      3.6506652337143177       16.63661685602926
   232   2      12.344979815072804      13.581693045784982      10.992570936376378
   233   2      6.1396484003403291      3.6647091171372712      12.610211867970694
   234   2       13.29704915237288      12.546918368831525      13.336828302057643
   235   2      6.0680460881060201      11.084489726592185      11.648418160381356
   236   2      13.185575812105302      9.8777160004364681      13.318804882700974
   237   2      3.4510436139464709      10.412095680920718      11.471063382615938
   238   2      4.4263080454584269      3.3397092428039326      14.845396563281387
   239   2      13.872366242511493       5.225835529850694       12.09651930371896
   240   2      6.9485975430281659      6.7495124606656685      12.223911306267627
   241   2      7.7590139432559999      9.1776739670423613      11.402941471960327
   242   2      4.1025730304132439      12.023910836239429      13.546276400885839
   243   2      4.5923357562267215      8.1139402960892291      12.237881438022326
   244   2      1.9613627490236438      8.3215220495982773      12.268541578084889
   245   2      13.329959101857877       2.832164046919563      11.524494503973427
   246   2      11.273067665081937      4.6558749291682773      11.709692221954421
   247   1      1.0364660270130652      2.7041920259214982      16.569649295411129
   248   1      13.344775322118711      2.2699463144433216      15.850739740142714
   249   1      13.379435869062375      5.2196021411465603      16.216421958910679
   250   1      9.0133126722141323      5.8903670453536341      15.523188933935655
   251   2      13.492299432448918       5.486290566772718      14.666788984617121
   252   1       4.259062824940405      9.2515723487487858      15.801262983132732
   253   1      1.5840172491190327      13.392465001121309      16.190010360638439
   254   1      8.9523118553038969      11.790593180008742      16.236783830636284
   255   1      11.148981036540267      9.9301108590069695      16.135315068439969
   256   2      5.4697604680516969       8.218243897796528       16.07794044460725
   257   1      4.1933595412222049      12.137572091057795      15.135562680299902
   258   1      6.8517458735449033      7.5883402304955609      16.635474457673663
   259   1      5.2909254638024139      2.0012209533281728      15.298775686030158
   260   1     0.65186899376187557       4.909940586279756      14.647391943466646
   261   1      8.1758743728511671      2.8851516398339081      15.026370074265957
   262   1      10.594187583343157      7.7214626422857915      13.854206432391408
   263   2      5.4208693869311091       1.188612894805388      13.894751863044641
   264   1      12.323332681000224      11.206766020017675      13.692487321176602
   265   2      3.5522939993074356      8.9392834033461224      14.389014652074247
   266   2      8.5600786160568223      4.3494589087952029      11.735437699161988
   267   2      4.8795304955359935      5.7217224005428715      13.395949678392464
   268   1      13.563640206164175      1.7891993214061781      12.739206551287291
   269   1      13.289213541819455      8.3663111355278392      12.624379060377191
   270   2      6.5439318609170316      6.2294104188496116      17.432984499424684
   271   2      9.8185520502438699      12.985333584184502      16.921945084514018
   272   1      10.782517491984022      5.1221487743258365      17.765496689934984
   273   2      3.0420917714599129       9.291398181064622      16.821425788457805
   274   2      14.495117532253612      7.4641847672416599      13.202046421820326
   275   2      11.920267297101345      7.5306086903362663      12.885210943534807
   276   1      7.5425019402470452      3.0961935401167686      12.219435097325725
   277   2      5.6653669185145539      12.563639637383771       18.13787165672219
   278   1      1.7227657974166755      7.5827982021436773      13.658939368739247
   279   1      4.7680001961144205       4.109940201286201      13.335058843229218
   280   2      6.7657038141485684      2.5566154674882591      15.717540479165685
   281   2      3.5640727014351024      3.6309245767308163      12.303562279781435
   282   2      14.090284653426361      8.6132299888747781      17.373459119478035
   283   2      11.940206562987374      9.7079134594004532      17.542198581606662
   284   2       13.97688659815827      13.833449493635277      16.610451339814055
   285   1      9.6321291066101136      12.479264517754519      13.392630575050966
   286   2      9.9676801007793703      1.2324929281805193      18.159075438633746
   287   1      14.508787802467538       5.852159076729051       13.43435746025896
   288   2      7.5348772031951716      8.4853498286308717      17.872263699568755
   289   2      4.1517923712425606       5.232678937872496      17.420273880646572
   290   1      1.7933810499641942      9.3322105313071138      17.899031450879608
   291   2       12.09103134475675      12.899373720848578      18.227835163161505
   292   2      4.8912251369073907       10.78922489613527      15.734744215349661
   293   1      3.6722001034514085       2.642589813314419      11.027395481897296
   294   1      13.343325448368311      13.926271392425377      18.084405506588642
   295   2      8.8759234609177948      11.734916240111374      14.604889534421698
   296   1      2.6537167463249909      4.7767972584437777       17.09937312294371
   297   2      9.6656503684059629       10.38740738965646      16.598721450963257
   298   2      11.142152444857386      7.7842708787103589      19.918918629497895
   299   2      14.658358212977452      6.1105344782761701      16.720141900994282
   300   2      10.208614713783648      2.5208470604850723      10.427246467018641
   301   2      8.3191429832175086       11.54316519987745      10.425989979000605
   302   1      5.2903209431257556      13.954177080634235      10.368955701183543
   303   2        10.4175814307571      14.690358774003585      19.111563709184864
   304   2      1.8679474147659487      5.9327833300722261      10.281602982934951
   305   2      15.018872293363522      1.1019279529740287      12.766020771464454
   306   1      7.9613304699686891      14.615650723042107      11.861761007859609
   307   2      7.1850391048577551      11.349933466991192      19.910509556846822
   308   2     0.61293063585409646      12.740149021324445      19.798308856309784
   309   2      5.4355516018675809       2.080519488103298      19.956147268256444
   310   2      14.167589707717449    0.033011913120933656      19.893533847317567
   311   2      9.5868225711004111      28.074154092304362      9.6714076760892596
   312   2     0.88476263518221954      23.046907867395401      9.1335903744900246
   313   2      1.6128983752089376      15.251855891857018      9.9671941352038456
   314   2   0.0066853521008241046      19.304950717731803      7.4302556852650152
   315   2      4.6187776349960155      25.984927003720429      10.159271140509594
   316   2      12.387932436548871      23.811594178908805       7.480202650351317
   317   2       13.74488708082524      22.697526880977584      9.3723286848920875
   318   1      14.918864968078914      17.474885041794526      9.3417996380914143
   319   1      14.909962398091061      28.246330821114604      4.8676907776272458
   320   2      9.3596518673092728      15.582368379059218     0.80719995136162492
   321   2      4.6392999539367192      28.284869540516578        9.14369937810193
   322   2      2.6958320181608388      22.333329673713465      7.3064574992566174
   323   2      11.070452316600791      15.530654140400236      9.6376939167792077
   324   1      8.3448814687003399      25.254445540008053      2.5911828178823142
   325   1      13.032296570633935      17.616981924801806      7.2535938334259367
   326   2      9.0735363127193338       18.64125668122357      9.0872548652829632
   327   2      14.447058236073079      18.299562942424192      6.7250475186934784
   328   1     0.12284550145624248      25.462072727939621      5.9547319554193194
   329   2      9.1904288024477321      18.153817409584363      6.4785494185946133
   330   2      8.8501355780721731      21.793783675136382      7.0956175934413119
   331   1      8.0532558867110584      27.682598343867017      9.4358953049805194
   332   2      7.4808403511935841      24.687606360321812      6.5748232290483815
   333   2      2.7300092536440501      21.233746402677522      9.7834099399950709
   334   1       4.177669589056868      28.735386314560099      2.9396887538634937
   335   2      1.6688084328791792      25.988756123217261      5.9923958262337305
   336   2      1.0548835480278087      28.182033284573709      7.6119079594996863
   337   2      4.9027810817171416      19.761271163629626      9.2216077907458942
   338   1      14.066111923149954      21.055225563114966       3.249812631503751
   339   2      3.3762227869913128       23.71901311792794      9.4616545895379858
   340   1      13.036736658907063      23.491072259474322      1.9199081475196638
   341   2      11.774657949192479      18.634870937304907      7.1187738803420091
   342   2      3.7728163827702406      15.550628033085083       5.175106865461423
   343   1      1.5223974345950295       27.24420846886342      1.8541798854202016
   344   2      7.8969090130389539      16.481220717835456       7.929074737125843
   345   1      3.7132198544420509      29.563620268064923      5.9318720690597599
   346   2      10.029017016762193      24.805513581442593      7.4102716289186583
   347   2      12.685889551263028      16.155216281050716      6.6647501051025984
   348   2      5.4311267250977089      26.095126015545542      7.6121316284402667
   349   2       2.901341833038332      26.475718999107098      8.2428977640872443
   350   1      7.1539273823435119      22.430017163312055      3.3515316798684447
   351   2      12.131710217091163      26.389617606392296      7.3631490518519414
   352   2      7.1692757953222994      28.659534993885309      8.4955880324027273
   353   1      6.1318101297617478      25.627500370029615      6.2734419631167597
   354   1      10.880959151944664      24.055728402096104      4.1059721964422957
   355   1      2.7142475776847803      21.927578437396186      5.6999919766342604
   356   1      14.577131765123008       18.87927856884076      1.3255293113137727
   357   1      4.6018944281543659      23.828218514009841      4.1363904884695657
   358   1      9.3504608646148384      21.692316015976779      5.4570536761209505
   359   1      6.4666327174302358       20.17573226494596      1.4162359802735769