(written by ASE)

11072 atoms
5 atom types

0.0                      30  xlo xhi
0.0                      30  ylo yhi
0.0                     312  zlo zhi

Atoms # atomic

     1   3      24.416386560357186      15.966755439589145      21.204765666288129
     2   3      5.4133901129342545      4.1384990473095176       48.97566565101355
     3   3      15.871978866769789      24.203903764531773      46.234145515480165
     4   3       16.34166305835744      20.251314532018284      46.257318678459875
     5   3      16.499692847831064      20.966383489754389      47.466531719396215
     6   3      14.215053996109337      25.052317659402057      42.856316972601938
     7   3      7.9530966039698905      16.553106865649173       48.18918627603162
     8   3      25.686957733639165      4.3142371184301691      46.365878433938498
     9   3      24.996699220792152      5.4780051831612049      46.484088459778334
    10   3      27.667798714166413      26.300127951491216      35.150840530254229
    11   3      29.144124757208129      25.676354682945046      44.831690440984076
    12   3      8.7774908157322589     0.12933407464590019      60.078913204264794
    13   3      14.415897500781337      3.3963540223515913        55.7904487839536
    14   3      11.588048228382428      15.020316451703144      60.747695494072978
    15   3      3.5845042156155391     0.51015436827222183      62.580267662087898
    16   3      6.4195387594704743     0.72159279047441371      53.600861049576665
    17   3      13.723550137928401      12.746461795471541      63.026826800646077
    18   3      13.630344975656454      6.1804471122770064      63.030325809409845
    19   3      4.7382588890564232     0.52919659014805986      56.009304833039018
    20   3      11.408911595268766      7.1052066009529629      63.031427208920654
    21   3      11.973763076226557      3.7561079292814172      62.883426403421836
    22   3      4.8938574517597502      3.0955287308324908      62.957400495344068
    23   3      10.705592216201332      9.4052594836840093      62.966220756123398
    24   3      4.7515501669351057      6.6367982952435138      62.243914655384266
    25   3      9.7799978393023785      10.305088333466795      62.308324113848364
    26   3      6.8310522987475837      2.1026975449825862      61.864535516110472
    27   3      5.4818876015519518      2.0419492664410646      62.208756332111228
    28   3      3.7784000100479123      8.9084328389157186      61.659429726042994
    29   3      2.5213511514542684      8.8902496566795435      59.662035447051885
    30   3      8.6681975771984181      10.540864388029707      62.929007691756262
    31   3      4.7420534802199956      8.1318510212953417      62.272700434892364
    32   3      5.3451443216432146      10.149377934018494      50.301915778280801
    33   3      10.107655035157228      10.903822325735776      60.982784018003755
    34   3      2.9004546476126589      9.9465783236752401      58.953706140283963
    35   3      11.338872662074031      12.030399335293628      55.285169629270484
    36   3       7.079356195429976      2.0296240772934397      60.333847069329778
    37   3      12.160210272625751      8.1496179257163011      59.925477454362046
    38   3      8.0793790751693724      8.3117747360630734      58.891115495067922
    39   3      10.149912069907588      11.143439218375677      57.699795950316584
    40   3      9.1152967093714601      10.940138807104143      59.926588105855842
    41   3      11.981980583020963      10.967121961057597      59.232439245889559
    42   3      9.3225291103298673      10.473319397247455      58.618486397779307
    43   3      11.378000908193506      11.692062099739282      58.161203045409984
    44   3      13.169151563829114      13.600058191379269      62.186371295308355
    45   3      11.533596722389849      11.194230321160539      60.592651652636775
    46   3      8.1313793823374851      2.1323051487314841      62.529616934536698
    47   3      9.2078974045488238       9.061734741358773      58.555187149223727
    48   3      5.7159761300995306      1.4386690772593531      52.672260704169489
    49   3      6.0946705219927342      8.7572130596000708      62.640247832157037
    50   3      11.055423345972576      8.1922506779262445      60.748799594916953
    51   3      5.5335097952294561      5.5976086473548641      62.738118503949799
    52   3      4.8160477293286759     0.74490305081787256       61.99782988537482
    53   3      8.1452807479004523      2.9083631305723401      60.050991809913185
    54   3      2.7879973422886106      8.3462816428417632      60.861050969555251
    55   3      14.333860438280015      9.8495862420032285      60.329960202212249
    56   3      10.925009810939923      8.2656333259462986      62.220227669603211
    57   3      12.498229601051397      14.274532752112693      61.354540390426948
    58   3      2.5521031190099368      4.9445472171732092      62.332899189004316
    59   3      13.906069023155959      11.418710869374394      62.793068366418964
    60   3       3.813786533987515     0.47448505432706323      54.962930163814562
    61   3      3.1275747148185427     0.42887301079615375      58.579420268518106
    62   3      10.800269850835548      5.8859500766722741      63.133256546559402
    63   3      6.2407862948796486      10.126145953088592      63.177242452650141
    64   3      5.5620648969395337      4.3508805287789096      62.957586545389596
    65   3    0.010852156007188326      15.170266642822583      64.457653035142783
    66   3      5.5637737686742694      14.328135150979314       71.91107628168136
    67   3      1.2035786411651255     0.36736009980888656      67.746441385348163
    68   3     0.83710975979428015      15.299684253359533      67.288159122518877
    69   3      5.5410012684018408      11.888671041710564      71.985446196716467
    70   3      7.7665746777825584      14.742441202277041       70.85984153188123
    71   3      6.1358319847290135      6.5723107398970289      70.963635038173152
    72   3     0.47117270727757876      9.4285591121056136      70.685355407593889
    73   3      2.3536463803634882       5.826819595677641      71.317578189403577
    74   3      1.1738767514219157       5.591722971389478      70.639494092472418
    75   3       3.664056481740892      13.048475482832846      71.059686287501506
    76   3      10.861060927395897       4.591870900474853      71.406019709144758
    77   3      10.260290536914827      5.4602780423343473      70.364067477416299
    78   3      5.3710390670106198      2.7603287925755411      70.800159011155216
    79   3      3.9532314150055674      2.6605693181932568      71.264209039508799
    80   3        9.19738844731142       9.050072467375891      70.455016549069043
    81   3      9.5363340709288842      6.5659291111080531      71.034689527968311
    82   3      8.9910613090604805       1.931041151558518      71.149248038917477
    83   3      2.9060493594830596      1.9021180015140566      70.782724357678148
    84   3      1.5768695294159361       9.862465821369673       71.58386101967703
    85   3      6.1318415333980028      11.509761020350785      70.739071382748193
    86   3      7.4554404281922384      11.057906806154701      70.686349970671515
    87   3      4.8519369394972989      5.9282812113771719      71.110145012195048
    88   3      2.4498143293717685      13.860066001507382       71.45758829670892
    89   3      2.0222967616007281      1.3066572132867631      71.791682448427707
    90   3      3.5374393617847235      5.9882989735939933      70.504761215109596
    91   3      7.0376406357317176      14.324532496409727      72.016389490369917
    92   3      2.9348227145332992      9.3205681857999494      71.726745591046452
    93   3      8.9096354394976238       9.516815075266404      71.834968577362005
    94   3      11.518805830902769      3.4345845099822454      71.790146137170964
    95   3      7.5230910730346761      10.825430538227183       63.47659813389005
    96   3      13.230201844995159      3.8511729878801844      63.543178455934921
    97   3      4.7947689793047203      13.128716029982431      71.888425720336485
    98   3      1.2381655362043513      0.1666997863355526      71.359825691712331
    99   3      1.3933670605931991     0.20248035982253351      65.525437719620371
   100   3      5.1774799544523162       11.00909861680346       63.51833819862938
   101   3      8.7332796000033266      2.8191990890546474      63.545793604731628
   102   3      3.6512711008630152      15.924288766255955      71.669106556786929
   103   3      9.4745647709119769      7.6976942539413438      70.173024053818779
   104   3       2.884037126070957      12.337883397111371      69.232613446292135
   105   3        8.22373064304122      11.034665249185046      69.500518635761139
   106   3        1.37807897617868     0.86726631926076048      69.094033698116988
   107   3      4.0847873128524785      12.461717890096081      69.728761617658421
   108   3      2.0370122991251036      6.8799077031027505      68.841753336366878
   109   3      1.3741054405575583      5.5917092170835065      69.128167022726245
   110   3      8.5397298882739747       3.241952720007037      68.800866258965982
   111   3      5.3796167657159106      11.770904630201564      69.396262143595507
   112   3      6.0086827097639599      3.3502190094157585      69.643465157234871
   113   3      10.702232949696775      5.9438678572503765      69.043180435336026
   114   3      13.869186288531701      8.8760173201410382       66.11619835547117
   115   3      14.123796443490958      5.3787803308480298      65.263495435877843
   116   3      3.5594604805760661      10.009053136112835      66.992757229562415
   117   3      1.1645868488833122      8.7897632683371612      67.267384976029618
   118   3      8.7088117285105717      12.766328635278645      67.682867019332321
   119   3      7.8201079222255343      12.067399103955456      68.640588174567185
   120   3      2.7683115751416958      4.0768845206703368      67.829151913196426
   121   3      12.714857059811035      1.6563573346183833       67.04068571052899
   122   3      5.4172147337212451      3.7844467529099148      68.240672232120275
   123   3      7.3509090150359224      3.2328091585434358      69.577048304984231
   124   3      5.7489128971765364      12.156895814295655      64.222829488876869
   125   3      13.860809885391605      12.408619803880429      66.702298049746489
   126   3       3.718442673651857       2.009413974102185      68.489634522283495
   127   3      10.357992737940274      2.2711910426756652      66.043759338199806
   128   3       9.541934633949424      3.9974853005438273      63.763334298358579
   129   3      12.921710912639027      8.4810261291048086      65.297982281348709
   130   3      10.403057669606438       8.397446793690035      67.940881758716699
   131   3      1.6093087968509503      4.3186757031819552      68.677544575410124
   132   3      10.154109284021683       7.373594576335833       68.93614319671866
   133   3      8.7661532238229878      3.7245165003434186      67.492275889482215
   134   3      2.7689859706847662      1.5188542947457615      69.425703000571133
   135   3      1.2570421073697888      7.9905000465292995      68.500601062793379
   136   3      10.480643304323834      8.1282987364130399      66.477321281962674
   137   3      11.361554063185869      2.0034402370036468      66.877382001191478
   138   3      13.458931432218085      13.113900205063894      65.476134417291092
   139   3      11.201646287617955      13.467680114226239      67.019642392536383
   140   3      7.8654544209636441      12.988434947518796      65.002801707448128
   141   3      1.6698911399822551       1.066421229194868      66.625406089671912
   142   3      2.3369379815710847      2.2893311614038079      66.380981581965756
   143   3      5.0695092746904971      13.192946909243533      64.838260459291163
   144   3      6.1883143424760343      12.657193023205485      67.051792241941186
   145   3         6.3691809325649      3.2457775384704681       67.07561639319708
   146   3     0.76193056469240061      11.574994210940737      66.343508500245164
   147   3      1.9292806316182589      10.961464163170549      66.510515730977374
   148   3      11.487583922418633      8.7340805105568791       65.58316344450887
   149   3     0.57031901694331011      3.3440723678726685      68.822677871688938
   150   3      5.0266364237992569      12.950015202580069      66.252436293937677
   151   3      3.2322970335340599       11.40183462248868      66.658271273479571
   152   3      2.0574690049731332      4.5591123344180629      65.408422240148496
   153   3      2.3229095490688474      3.8040038606248845      66.529030402747424
   154   3      13.445612471515995      8.2710383917220369      63.995170881058485
   155   3      3.2975389029391495      6.7721746796043689      69.342994126395567
   156   3      12.029322889825336      11.403270211072556      68.577318122209064
   157   3      2.8887573011440448      13.840105370569335       66.77003821213242
   158   3      3.9768916985974974      3.3703684253898825      68.141475835467318
   159   3      13.473942281606154      4.7888019649670408      66.371685739955126
   160   3      10.929567294171044      10.913121959535667      67.929842620168188
   161   3      10.170805061074374      9.7613430009020785      68.413263463646558
   162   3      7.4163119311853878      13.382348825383401       66.45583541812573
   163   3       11.37539506056881      5.1563900192048244      68.129838481758327
   164   3      7.5832982990412905      3.6367580116887495      66.586963749728625
   165   3      7.1832017628715912      12.089987938025313       64.21842942102046
   166   3      2.2194688669495886      9.5755123552250101      66.951695367266467
   167   3      1.4298595801821019      14.009950481182202      66.845075388056131
   168   3      0.5529864129590133      12.963145559838518      66.356318531343788
   169   3      3.7002071105385683      12.727343379504234      66.710865376141911
   170   3      6.3671778236281229      12.284905427126434      68.410732962200029
   171   3      13.726276365904635      5.1272802861946225       63.93410826081054
   172   3      9.2405259654792928      9.9566412920138418      69.425347335034644
   173   3      3.0304496186297483      1.2832910732511169      63.695149141487086
   174   3     0.40421816222365375      1.9971680128503921      69.318643663264496
   175   3      14.335328648827241      13.087969960660303      64.323572931961706
   176   3      1.9833561067466903     0.41390118626916117      64.256268909731233
   177   3      7.0251429796072928      15.843999223779576      68.544631607778996
   178   3      8.5117695315303958      2.6129033225349256      70.046355498163692
   179   3     0.49894647674835957       12.03409778244866      71.762139206495078
   180   3      3.3109018924175322      15.137011560165186      66.125291795677128
   181   3      2.5807364392756229      15.193299370164636      71.201296982343678
   182   3      13.366989745849837      0.4098024888915961      66.920299753047161
   183   3      1.3391561170138679      15.390058393347264      64.489947228602759
   184   3      2.5830432500987102      15.474167422044635      64.745453169303772
   185   3       8.079888767410182      10.696160427811909      71.926525388345567
   186   3       1.170210322677389      13.374642537855751       71.94061261141502
   187   3      6.0843849419795415      2.8115949492948151      72.019376790351942
   188   3     0.32277377492081355      8.5985686469672533      69.472255991555357
   189   3      10.884416571956139      4.4693979536617618       63.38110553900156
   190   3      7.3673666486088276      15.777515451788267      69.925904244396477
   191   3      3.5717498278184565      2.8501159752769984      63.473687980048958
   192   3      12.782728033359598      7.2461136461940816      63.326151243462725
   193   3      2.6937476615055558      3.9857664452079113      63.334372471641942
   194   3       6.572551519026411      5.9023452299068149      72.063134728427315
   195   3      14.355112111529877      9.0461125084167868        63.2873624426406
   196   3      14.579150266227794       6.331612303749532      62.002243738889554
   197   3      15.247483555872389      8.5810502297926128      62.215703209909542
   198   3       28.44280063067141     0.46440212600011632       61.14754483770318
   199   3      15.459208782249629      9.4311605944102013       60.99765896595602
   200   3      15.658714874606103       7.241149475480646        62.0562551773046
   201   3      25.769986130535834      1.7021045871121325      50.466507101421612
   202   3      15.683448423767976      4.1775743355395489      61.584127267620268
   203   3       26.63735207671764      11.938796677766984      54.243450465234943
   204   3      27.329635711376589       14.45829462753383      56.732725173747589
   205   3      16.973417964512578      7.0065745710052338      61.744134280437152
   206   3      26.900804053842855      10.006911257587758      52.587587309118689
   207   3      25.341491548435602     0.79337197277773752      51.365745966522503
   208   3      27.266121781607335      2.5101846584732943      53.056814344586783
   209   3       26.95697469566926      1.7046035902413716      56.675092093100893
   210   3       28.63966418774514      1.6333137060522855      60.324127050662248
   211   3      28.085849607077979      1.6990340920894944      58.990833771243757
   212   3        26.8297673386745      11.007107020224684      53.424710320309998
   213   3      26.498535383740268      2.5283938533347947      54.190190665950368
   214   3      26.578427842576115      1.5710570346767645      55.314623513317834
   215   3      24.566707846325645      14.574418663018012      51.399419262510904
   216   3      26.728649815905445      13.690441685912303      55.979145954078518
   217   3      26.124250095761955      12.915326694301866      55.040861206578086
   218   3       25.71052422618212      4.6880281499619354      62.074332161294407
   219   3      16.626631148583655      4.4372802125739712      62.666191185522138
   220   3      14.796611616215717      4.7210728314160688      55.796438946140377
   221   3      14.806430830592495      5.1960227826087992      61.341798578548421
   222   3      19.349006003272724      15.370370271786584      71.261633353737182
   223   3      29.841790711647807      9.3203023903033237      66.561325660856497
   224   3      21.348615137582627      15.259670836946251      67.534862618045679
   225   3      20.740476901457136      15.094510395596144      68.727218529269948
   226   3      18.360125597177952      15.361290764138626      67.889167914262615
   227   3      16.793464512222577    0.064884197584415659      71.240753153260243
   228   3      17.662705743433538      15.668600037837253      65.403550040500349
   229   3      29.491195870231792      15.674420492675855      66.779924696508644
   230   3      19.301550618887926      15.638668896062152      68.791850481029499
   231   3      29.710428099322105      5.3936664401997074      70.866115399943794
   232   3       25.94256753584969       5.083088439448149      63.354894581903302
   233   3      14.459170778256215      10.469806045467042      63.637932424656526
   234   3      23.536627135592671     0.14258557722698789      69.867607736811664
   235   3      28.563065320932228     0.43491455818109159      70.065058096666959
   236   3      27.090993961886607      11.756181506303715      70.234330062549688
   237   3      18.243741097131597      11.067822174798721      70.427546118010056
   238   3      21.820841443899766      8.6900959956692621      70.507311313561033
   239   3      29.262180670800532       14.84561334628413      65.655256537126732
   240   3      21.200772229597813      14.745457992599288       70.03021360776647
   241   3      22.463083072165656      14.307567271003988      70.304588607323936
   242   3      25.788531776838685      7.6622105827442581      70.006876356667718
   243   3      22.306773785516793      12.899193861854299      70.389039451899393
   244   3      29.133061398436649      1.7758087724719711      70.072132186980411
   245   3      21.094357626541122      12.184726487000916       70.11448554505462
   246   3      28.974054756230313      8.7456928424458695      69.094755727254324
   247   3      26.063117414191449      8.0083569213955581      68.518625252883936
   248   3      28.352773870350862        4.25874258247483      68.078287866943811
   249   3       27.20474454934406      7.3823338924317055      68.008603880456661
   250   3      28.376305848285707      8.1074839771041685      68.026153211209163
   251   3      28.325768793261407      11.334313662175713      66.558655868790879
   252   3      28.053329808543683      12.662391610994909      66.199091472166032
   253   3      18.420086490156226      2.9998477972966877      69.603820375497236
   254   3       16.58144973400573      13.350233226056366      65.168547880246621
   255   3      26.412919878973948      10.374516337370602      68.124750788515598
   256   3      17.749535329114586      11.992169549306572      69.544715777549726
   257   3       26.48919812682696      8.1775012861762502      64.525291341230059
   258   3      17.277800273439617      5.9755356179173544      66.813563825213549
   259   3      16.878275000950325      5.5009471118088085       65.56038186703617
   260   3      27.366789011685462        7.07154599241046      64.684167842887007
   261   3       17.17350669245161      4.1629877272300373      65.117254023819186
   262   3      26.676952637662644        5.85566708986123      64.306276916693349
   263   3      17.943218520387791      1.8677487193026256      66.153326186552846
   264   3      18.273206252482996      11.618579229612688      66.165534338197531
   265   3      17.951867175469147      1.0332428703633028      65.036454671624185
   266   3      17.639534794136193        3.24222575144351      66.112696431180368
   267   3      16.885820062267303      3.6478050370522395      63.823442381743881
   268   3      27.306677211193072      10.443622223947738      66.916691461237207
   269   3       18.92497008372311      11.216433068582997      67.418662163501494
   270   3      17.888303288947714      3.7413949139419334      67.432543013113332
   271   3      28.108622114531101      7.0490259953080328      65.903625739319892
   272   3      25.062670763669747      8.9481067285580878      66.609122646047723
   273   3      17.042033899841979      1.1435899187894945       63.92552344236104
   274   3      27.440171808369559      9.3150157146417598      66.126148466153396
   275   3       16.30511110227366      2.3873763019880885      63.717752723842224
   276   3      28.584686693094131      8.4549827442371281      66.552034704144489
   277   3       16.73874256867736      7.1855733111983238      67.389743392341245
   278   3      19.854146243925438      10.051350822295081      67.559861786646024
   279   3      26.128752274429068      8.8734870123490719      65.614837601020682
   280   3      23.646352061360417      9.0784462273591942      66.318066975888001
   281   3      17.808830103304071      5.0713253033354651      67.771131028842518
   282   3      18.346841817303321      1.5520684837608425      67.505564428501629
   283   3      27.463177754922413      6.3763077058571387      66.985980191018996
   284   3      22.431642479420763      6.4997803499774616      68.559537577188166
   285   3      22.865529776919658      8.4237813096886693      67.111408346506664
   286   3      20.724211502314812      9.8971136867919132      68.656282798000078
   287   3      17.359887541075764      7.7547971173588177      68.599210699783896
   288   3      23.252566544411913     0.48421044540986785      68.517280824564807
   289   3      22.455102026345592      2.9077514325588791      69.771136308260722
   290   3      18.032569592859943      5.4594575948465414      69.119963702367642
   291   3      18.380741904728072      2.7396370659717366      68.273119194432937
   292   3      18.499761737106137      12.148176686898656      68.374332452452521
   293   3      17.380682554731589      12.802840863034373      66.178623676944738
   294   3       22.20308453432488      7.8913205947010665        68.1872867054892
   295   3      17.364884345549296       9.114060948560919       68.95234841928233
   296   3      17.987717544204287      6.8201394393410419      69.474210347213969
   297   3      21.207739743541801      10.864308996692737      69.712160364667966
   298   3      25.602466313915489      9.1307831028379152      67.898978407386522
   299   3      15.610196710087061      11.025420926734624      64.522782826458766
   300   3      15.634210726697834      12.581631937819262       64.52398802353369
   301   3      16.666656241230868      12.901546182433378       69.86466030543113
   302   3      21.535503657777205      8.7495890475182687      69.031782526554281
   303   3      27.813958825689713      4.9847625384248717      67.191107818308026
   304   3      18.455015909730896      4.3659811591420814      69.934587069959605
   305   3      29.244519220563781      13.460455070572126      66.062431157531819
   306   3      15.864464102049459      7.8265203390481268      66.499092005952889
   307   3       25.57881107660797      5.1996221250296015      64.803952653975983
   308   3      16.803347096426105      14.761481510119657      64.713369564122843
   309   3      29.283110323020875      3.9111255511180336      69.060325966732336
   310   3       28.40844075556598      9.9167139677287821      69.791639345154991
   311   3       27.23078987901167      10.576583288702439      69.478938755009551
   312   3      21.659434939137263      4.9081098325060939      70.277022270505725
   313   3      15.469917048555914      10.517608917396746      66.014135387576673
   314   3      29.641162678512224        10.6518971928955      66.425386468287854
   315   3      15.205458292770075      9.0931685806598512      66.348126011598424
   316   3      29.376587724627086      10.275823723062953      70.709712918444794
   317   3      17.989679435244508      9.6406823135119915      70.124804269539155
   318   3       23.25145882240885      12.116317257819873      71.034386909563693
   319   3      17.000295364025021      0.1310072810013807      63.069767816178675
   320   3      29.146011784166163      4.1618550797592633        70.4758369517576
   321   3      23.706648256764019      14.868936387665856      70.738828142766238
   322   3      29.323396600658082      11.538615391175803      71.316830645859355
   323   3      18.848180651640551      3.0355530884494151      71.795398154991048
   324   3      23.046394665166719     0.94193895664988214      71.045716122892372
   325   3      28.638786388091745      2.8873442772624305      70.992773720772348
   326   3      22.984035990641885      2.2976697231389638      70.920057048577036
   327   3       27.94515032851519      12.078767913356744      71.284120897978397
   328   3      18.169688488348459     0.69423738422463643       70.96789568558431
   329   3      18.391171653288755      2.1255990651843684      70.748447533628521
   330   3       22.74237015224929      6.5912093528883462      71.713763369207911
   331   3      22.499561819301022      5.3055354337795091      71.286734174174654
   332   3      18.335524901889045      7.2193557271197148      70.759533654181041
   333   3      20.025668790387694       12.75620827230467      70.948795347897757
   334   3      18.998543901199834      11.767253335517841       71.45436534614204
   335   3      18.420623683666303      8.6752816552554162      71.050172130462428
   336   3       21.94027340939838      7.8149234475465885      71.533931703429275
   337   3      21.924627702897173      10.098455341547075      70.759911876968445
   338   3      22.893999296064116       10.81081279308165      71.495855878160853
   339   3      20.126246966650942      14.239279820664979      70.925749893892558
   340   3      18.630211405011206       4.421235307430492      71.264337837718102
   341   3      24.529113310088505      14.099115608068852      71.551103396925811
   342   3      21.489095893485224       15.72127626342145       66.27921011791139
   343   3      18.406018374427124      6.6378591812887464      72.036658068660572
   344   3      14.750772446796509       11.46900725645869      66.730485712545772
   345   3      23.309658627204822      4.4280692956240397      71.997201509706642
   346   3      24.132192542034616      12.801669457656738      71.956494418527299
   347   3      8.5151740826240161      29.613337701811229       58.92500634689609
   348   3      6.0198456558851525      29.394826501293895      58.287015096478427
   349   3      3.5541101442479488      27.565549052217101       58.25403435802955
   350   3      6.8253185555457669      26.015638432578697      53.443986160198889
   351   3      5.7836840784878918      25.089932949063954      58.261312416892203
   352   3      3.6500256673702793      19.824715276026286      58.677588820752582
   353   3      2.3787411329418773      25.371995259939219       57.59991115458746
   354   3      3.2617640796398613      26.309223660991456      57.930010406631176
   355   3      4.3379379910336908      20.888002431699285      57.962395850323212
   356   3      6.2591381152420817      26.299763429564489      58.725906589085717
   357   3      1.7706146871112467      28.225620832959152      60.547437642359867
   358   3      7.2517017552231557       26.49693789725919      59.613837413355192
   359   3      8.1611871445421009      26.520975777438267      60.420750400395846