(written by ASE)

12313 atoms
5 atom types

0.0                      30  xlo xhi
0.0                      30  ylo yhi
0.0                     330  zlo zhi

Atoms # atomic

     1   3      2.9640917163471783      7.8661053879234997       32.09334746957758
     2   5      8.0005587038321426      7.6596927676395197      32.248129061625292
     3   5      4.6286932961509333      8.8441790819396022      30.388675100124487
     4   5      4.8446703976566257      8.2357465575873974      34.488431439065891
     5   5     0.64879539923425256      5.1231594978993247      31.157674519548294
     6   5      10.647263015043013      8.2110292985487785      32.184373283679491
     7   5      11.393263512366795      3.5827454682091626      32.541993034332435
     8   5      13.527549386132673      4.0069309691957455        34.6028326910142
     9   5      2.9775209839112451      6.5537038372997856      35.203300782184847
    10   5     0.20777354736969125      6.7193262172052242      33.246953139082343
    11   5      13.012577344210742      2.5325059445278719      40.348391902701408
    12   5      10.579063050085182       2.566021049774506      39.869729993926661
    13   5      10.278309289289041     0.54781728285490516      37.347661876162313
    14   5      3.8135234430417215     0.53491686256405624      35.602255881545247
    15   5      7.8772173937259806      6.0062991165809718      37.266348962911664
    16   5      1.3495208366499449      3.4544824474213951      38.576985869827553
    17   5      5.7186429960497129       6.083253580977602      38.477098277134388
    18   5      5.7897150455710387      8.1862561636010334      37.000743822579018
    19   1     0.13727900802784632      5.2299168306419803      32.655176564191706
    20   1      8.7863930352386248     0.22609200032363172      38.022079281176929
    21   1     0.68073385074662862      4.1380884924738117      37.301295573454205
    22   1       2.799840470512041      6.2252534613271759      36.780104311378992
    23   1      4.9427416488100064      4.0715869547207983      36.435032957957873
    24   1      7.4539824945572715      5.3751153643539293      35.633182776266963
    25   1       6.328368966366968      1.9788570515017501      38.288222094975048
    26   1      7.1692728827308709      6.0770670345862809      39.007413834027247
    27   1      4.3722028534251223      8.7652540992602912       37.63764142646972
    28   1      4.5864668117474414      8.5557067793212411      40.650280082309166
    29   1      6.9934146000949413       3.543948903849417      40.610642342447711
    30   1      9.9017051606281417       3.845933690618756      35.598421024123233
    31   1      12.631379060178761      6.9031990039441986      37.397783711093396
    32   1      11.110756008126657      4.9221995007169665      37.400803093705655
    33   1      14.401810042743008       9.115395999290687      36.950495816461654
    34   1      11.872908862033636       3.526190914579364       39.77321814777801
    35   1      11.074587941180109      6.3008588636384744      39.867637532474802
    36   1      15.034192040056331      4.0661705628317488      35.010744737803215
    37   1      10.787051527932563      7.8469284513733548      30.630527149452824
    38   1      10.914422259298803      5.0329524196385886      32.954231842526525
    39   1      13.744272807416454      1.0291811567569229      32.904520044039899
    40   1      14.156686414729007      3.3684987652604201      31.219766168665856
    41   1      13.081649852160064      6.1610283456397932       31.30512515065244
    42   1      3.8620536767546745      1.7578136362146219       34.60936162554431
    43   1      1.1159848318183754      2.9390896266314974      34.382671150376574
    44   1      9.4027061598032802      2.0155753133624321      30.950231878930992
    45   1       8.964779203400143      1.5492837029897415      33.883864682504822
    46   1      4.1227617791836835      7.3484637799257486      33.427466983935773
    47   1       6.311785708341926     0.60908649912372526      33.490115131443901
    48   1      5.9399594162438216       5.503116616245638      31.925853960129448
    49   1      8.0371197864253485       6.134217370986299      32.759862462606584
    50   2      9.2121882002452686     0.40322667495820014      30.823727630061292
    51   2      9.3459676710473563      2.3011588588446363      32.567994711649348
    52   2      9.4740658916074967      5.4790518924819605      32.254734162323757
    53   2       8.106958445170747      2.7887269733577869      30.226192677112856
    54   2      2.4949575965280704      2.1968061545911914      33.944975214672496
    55   2      7.3427554017847552      1.6890338406180798      34.194296736828726
    56   2      1.1277923801832075      4.3661973648824572      33.556420154884961
    57   2      4.8236146534133875      5.9221303748496181      33.055802344583427
    58   2      5.8928580503426495      6.5664210406104591      30.662682253535088
    59   2        5.44449002214402      3.9825105420028448      31.426679454293325
    60   2      4.8958115507502287      1.4014632878093876      33.415492244057155
    61   2       7.945615383361611      6.2829308923083902      34.400388463687165
    62   2      6.7875182995888803     0.32074195007434841      31.939661188699013
    63   2      12.241621696325758      7.0897279793599823       30.30797123503956
    64   2         14.527962983633      6.8981839982125734      31.450817704432374
    65   2      12.155440252694374      6.0911077838107115      32.650619709700493
    66   2      13.227674284421445      4.5967402338693626      30.766373518914001
    67   2      10.857077274836993      2.4239157600519934       30.33419114103841
    68   2      13.626901364430918      2.5887142948532231      32.475935199723899
    69   2      12.368949009955401     0.47991771764366487      33.585130981911796
    70   2      10.629580866769828      4.9861256860390446       34.57720797661618
    71   2      14.759516444112277     0.85488751375805849      34.179215188152597
    72   2      14.067946474098651      0.2291786722312899      31.514028035599928
    73   2      9.9101919630410897      2.2330399112520887      35.042630213083839
    74   2      4.3278227199656341      3.0507253536851917      35.438121212586488
    75   2      12.290508544977772      7.0099717133245516      39.033507105977691
    76   2      14.071115395754697      6.1497193336490117      36.911858926561493
    77   2      12.103120829155893      3.7939479493565962      38.190013825123927
    78   2      12.910139691216813       8.503934103080109      37.047343626025487
    79   2      11.706813932474144       4.937575210671806      40.615093139460235
    80   2      10.213464461770243      7.2418270141788517      40.894722120246257
    81   2       14.98188738142062      8.2811063517065797      35.653512215327396
    82   2      15.029885042205006      3.3728013972258721      36.500390252632542
    83   2      10.104681313870614      5.7488146151385164      38.612223411991984
    84   2      3.7402186331069913      4.9099218575885111      37.151056946405632
    85   2      8.2868707891925961      4.0028849465599912      35.826783309670368
    86   2      1.3036780159745924      5.6998642182615367      37.133960089768792
    87   2      3.2845245677763661      7.5389176801040687       37.49932978956285
    88   2      4.9730315261324565      1.0319809952107388       37.98745459969772
    89   2      5.9003798364158797      5.2035986135264061        35.7253901702801
    90   2      1.1110587042186468      3.3539579776835158      35.934383371740182
    91   2      7.7218388773079054      1.3805005500382483      37.558659515571975
    92   2      5.9389645244777292      3.3348897484712254      37.568794171185388
    93   2      4.8790401695589285      9.0167968013036557      39.181259485868239
    94   2      7.6169213498747474      4.6680456920209039      39.549505421166636
    95   2      6.7767898916101563      2.1472313140462913      39.844993185917353
    96   2      7.8810637825145964      7.1459426306174469      39.884172049171973
    97   2      3.3293014413000956    0.055675938701284622      30.823122143576491
    98   5      5.1962702071325824      7.0852216059102071      40.914144096810077
    99   1      15.393902404810616      6.7275667866104731      35.999580252830654
   100   2     0.41325518125102395      8.4571028237861192      40.317197552392656
   101   1      8.6189736079780612      7.3370390546216733      41.351144134472563
   102   2      3.7911443108286682      9.9945976659974907      36.846187664515313
   103   5      15.568396746477699      4.0229441352149138      31.545112076591217
   104   2       15.53376923492918      5.5900644478030328      34.900434023770245
   105   5      5.5781071288192363      3.9810909233803891      41.182499017175516
   106   2      14.808084041086754      4.6217050027293114      41.304827331039171
   107   2      2.9700470546118884      8.5946049322081777      41.039110501567521
   108   1      1.6201735006520956      7.7868534072934983      41.262960115169733
   109   5     0.43010950002915088      2.2892440299828918      40.687254005537298
   110   5      2.7634372633867454      3.7700308467560979      41.064726868177949
   111   5      12.822497843225079      10.137094452836401      41.289881388274672
   112   2      1.7099248593356853      6.1754197386991141      40.846098201598302
   113   5      9.1241636133711879     0.11302075397267489      39.621418299832435
   114   5      12.915450264447585     0.13577255125109033      36.079369548193199
   115   2      15.304634928270026      8.5647297762582859       38.21079414031793
   116   5      2.1490317991731596      10.492289816877705      31.932872717907006
   117   5      4.4615887689784941      12.690602412943443      32.371097878780503
   118   5      2.4385759513546379      14.161843157880906      32.940249897067467
   119   5      10.283009662280692      13.252930825550786      35.676266646052319
   120   5      10.806389896813373      12.509666333177696      40.391510145934085
   121   5      7.5988934000677313      11.053620831810063      40.299926515332643
   122   5      5.7067135479965527      12.913591860641787      39.742319871742325
   123   1      7.0132616626626847      12.550795560190657      40.576209267936264
   124   1      1.1851303696498841      14.125713769647318      40.285166787566268
   125   1      6.2391167002745469      13.365604535388597      36.163742870499085
   126   1      9.2637759679228839      13.852949317492685       36.77781884121012
   127   1      1.5509114176929739      13.349695318619929      37.512968095394349
   128   1       3.884470758550993      11.488953706886702      36.222585320410658
   129   1      9.8093143142919317      13.600302545524592      39.790628344375094
   130   1      13.392890420211309      14.747254097741852      37.485201846204397
   131   1      14.120327342856609      12.121863086577351      36.119762792559797
   132   1      13.980837300524104      14.648426226503606      32.468203795311823
   133   1      10.339579088989604      12.309369022735831       32.00419376039882
   134   1      13.123244989176756      11.725806608880131      33.179394309822769
   135   1      5.3111336570302132      11.982292601131789      33.609873511550987
   136   1       1.849425075354495      10.963655752049469      30.439722148937339
   137   1      7.4144275130876904      11.735039328367709      31.696598843394778
   138   2      7.1031903900512816      13.369415888029296      31.469098288320204
   139   2     0.78448942184808335      12.157895448661638       30.42648752960617
   140   2      7.2290338038817188      11.021065502714842      30.263641302889454
   141   2      6.3087345377835975      11.036813319913662       32.79242366676776
   142   2      8.9178884537477092      11.597435269948273      32.298112244532177
   143   2      6.2028070623770093      12.970499741349974      34.550789610449769
   144   2      4.1509405835703825      11.309086805948375      34.636775032303738
   145   2      14.108211410727828      10.425613800775267      32.702512699560806
   146   2      10.495194052171804       13.83163352691318      32.646641483976993
   147   2      11.565661372188142       11.43341652859116      32.704786898964095
   148   2      13.628121692262191      13.034549013820525      32.329444366537118
   149   2      10.628347515950022      12.179798773237914       30.37839329754722
   150   2      13.201286497136039      11.837657344432092       34.80111594040752
   151   2      13.407270565179441      13.117749448735731       37.29187948918873
   152   2      14.451813030819276      10.697816452134376      36.816750664938766
   153   2      9.7587538271207119       13.33746119794592      38.209005469608201
   154   2      2.2772270774495524      14.756316657527178      37.206378921706296
   155   2      5.2480670089116659      12.210842297649826      36.891467629262038
   156   2      8.2785273076546275      13.528313591970324      40.421793844096541
   157   2      7.7809844968019153      13.250051322564092      36.664801624948339
   158   2      5.5583744469356162      14.784338324632213      36.580041987884854
   159   2      1.5674320137928111       13.10211018452225      39.070754574250635
   160   2      2.4938739535558803      12.206262460657856      36.768834350393504
   161   2      15.170930439644545      14.602368375732814      33.570246435204737
   162   2      15.403520864726126      13.048081972813193      35.693524331343674
   163   5       3.274752423469359      11.359418022078147       41.12481101233616
   164   5      2.5044367589150238      14.416712881896396      41.146879672552146
   165   5      14.233373102136811       14.14668232119096      40.144437705220447
   166   3      15.493188232740813      10.384348346371741      32.957721862680224
   167   2      14.914709040227242      19.947509265996022      37.778049663475088
   168   1      11.816418061546957      20.281886898249887      33.968652960153207
   169   2     0.26788509695831286      19.761711338750231      37.687030918972177
   170   2      13.561955700467475      20.006721926071581      31.504796768544566
   171   5     0.60947030920189116      15.539764354221077      39.639828333124555
   172   2      12.048678870575266       15.13218777458019      38.268904657471715
   173   1       8.621252904693069      19.535748952784267      40.495318483262338
   174   5      2.7251917566086745      16.849149770081031      32.746017082306103
   175   5      8.4280059825743354      17.784309196096046      30.628183525378109
   176   5       1.757056889285924      19.571582280295988      33.640412779330902
   177   5      6.5877092371832306       16.74326761732415      37.930973856366656
   178   5      2.2821137014752018      19.228149676629798      35.926742165494318
   179   2      3.4458851997389099      15.163623972963753      31.006765745708194
   180   2      3.7882637971231206      15.203090585272614      34.509682600950732
   181   2      6.1794495460898329      16.376923704118518      34.768730391873774
   182   2      14.546713124795444      15.312716214521853      31.092097468321494
   183   2      12.569475310068334      15.449338256182347      32.896006562270252
   184   2      10.255176262662093      16.185023013623482       31.52074840641523
   185   2      13.058569181823593      19.192731005358105       34.10902684831359
   186   2      5.2610050684608298      15.381496999342811      32.600883426640877
   187   2      10.162675177358595      15.945744650883894      34.149825733803368
   188   2     0.92508811575803207      18.395701284812297      31.402808761095905
   189   2      7.7358557466934172      16.291084661672119      32.480358981219744
   190   2      5.6846123825389725      18.026618578576613      32.757598495632195
   191   2      6.9651232024988516      19.608633465471122      34.214396532195053
   192   2       3.142163605249753       16.56163020659638      39.094220440976045
   193   2      8.5569790981640885      17.935827323674904      35.469904261726874
   194   2      6.6905567814036369      19.502608681287697      36.804183830269125
   195   2      7.7063986114326841      18.551354944531496       39.51307938364215
   196   2      9.2739149401854188       15.46178554502082      36.587493089187177
   197   2      2.7915311130790683       18.66357845752195      40.940806800453359
   198   2      10.706517263116591      17.405233877756562      38.635456441481317
   199   2      10.783095289082038      19.783630891335655      37.413774150401309
   200   2        14.7292233415792      15.630178289690749       37.95054336018611
   201   2      13.023994061040392      18.216255141316864      37.490384622576741
   202   2      2.7407376747946324      19.113437081861143      38.386287704410037
   203   2      13.461534877656556      15.516944508727907      35.997405427135448
   204   2      11.001024141771145      17.603911508195313      35.988291337625697
   205   2      10.197906912623584      15.176819092152325      40.170125847791404
   206   2       12.99787304632822       19.38484373687939      39.836641039780801
   207   2      14.757415681444826      17.755112367951178      39.644656503068781
   208   2      12.354073653807031      16.793312764336935      40.482923942339497
   209   2      3.8662310440791767      16.845571293162859      36.522698327610797
   210   2      5.0626418873167127      18.345886480912487      39.320812700774773
   211   2      6.4337189296523203       16.52466692640709      40.613250284269881
   212   2      1.2614781726665776      17.257000431135655      37.318870616621581
   213   1      10.920535583508665      15.382157304380849      32.804659718264304
   214   1      14.214682991132412      19.809530089027863      33.026045175431896
   215   1      3.4996241413977072      15.386440756643063      32.777582943954421
   216   1       8.664891263158836      16.270568683269452      31.168220243376631
   217   1      6.2519855964737197      16.524243824408433      33.141426097270752
   218   1       5.476135672665098        19.3090699638208      33.799027043182917
   219   1      1.1195538482770193       19.84434041731426      32.204024542578992
   220   1      4.8036290352796165      15.847830736268872       35.57753201324077
   221   1      9.7189309148821614      16.712588077440337       35.50580807818416
   222   1      6.4447150807015214      17.565570195641712      39.371919149075971
   223   1      11.404204246369101      18.277356687796921      37.423990774298602
   224   1      14.064367349293072      18.879149218138263      38.554209176047422
   225   1      13.388698214515777      17.982447595596732      40.689269177765794
   226   1      14.925019747166299      16.166087138957565      36.431978687380749
   227   1      11.313615195057334      16.110636510659877      39.419012457687899
   228   1      7.8087766344207479      19.366971703666632      35.585521877864018
   229   1      2.6317477495143096       16.35681768022415        37.5412323472314
   230   1      1.6290944745319684      18.892650285319093      37.307465166028273
   231   1       3.456960044137745      18.168539296963591      39.497900406184861
   232   5      4.6294649854047938       18.89299757789821      35.077685223470667
   233   5      14.980123508110303      17.677938492322916      35.995815962341013
   234   5      10.511025994139015      19.439858673954468      33.681057815945699
   235   2      15.569093982668559      18.828020069529934      32.658827610691333
   236   1      14.983331690877524      13.284456342975796      41.255179093786339
   237   5      7.3918598419936439      20.004869232583811       41.37903625659041
   238   2    0.053046113818624008       13.52955846184666      41.318012625421318
   239   2     0.51675384277510072      10.140766632202372      49.281505192085085
   240   5      14.935653057084419      7.3883728832435098      42.190366857941669
   241   3      3.4495851279177541      6.6323796176971967      52.892274338442967
   242   1     0.32845043890043657     0.52036358505364833      48.805793599321873
   243   1      15.331629445965744      9.1217547739186582      51.307776790309944
   244   2      5.3535308256597309      9.4408006164103497        41.7306146156713
   245   2      12.762249253810207     0.46484687352609583      52.124237227754882
   246   5      10.650215371375328     0.99906918685319934      50.768359834967626
   247   5      14.802854398542296      2.8214248981410486      43.283166598530144
   248   2      4.5369569002487848      1.2559379392862473        49.0670294498467
   249   1      12.612815039116331       8.195144434018486      52.216370426640658
   250   3      1.1386528810077361      4.7264627493454769      50.676392374726447
   251   3      4.2245331280509584      4.9473865544206115      51.209145617543676
   252   3      3.2712065342168155      5.7035448298778491       51.74196873628879
   253   1      12.917080746554367      8.9416931022608317      49.319774825876188
   254   3      1.8138791355910224       5.651711699007298      51.412838814361749
   255   1      13.192721095837987      3.4080290120780266      48.630533408500185
   256   3       14.58379515311098      9.0477579595946835      49.700408516455447
   257   1       3.067802840067094       9.080646349591138      46.441043311171512
   258   5      14.578846405296337      6.4176348288870235      45.959905159382423
   259   5      10.111706150083556     0.88743714395845674      43.383950508596001
   260   5      1.3232863958346079      7.8833909051949549      42.785284062231234
   261   5      5.4630372811230519      1.8994796894778108      43.881655732824399
   262   5      9.2241796530509284      7.9753185940563442      44.711118035991156
   263   5      3.7354850895028209      3.8027434317204283      44.728552490469504
   264   1      1.0392158829956797      8.8254500345391413      49.957341353107211
   265   1      8.4172195421585236      7.2310178174514546      52.117068798616238
   266   1      6.3408133117707104      8.2598725492171834      50.211287461231294
   267   1      5.4887458093746933      5.1943077522086298      49.957353762764399
   268   1      6.0884665985628317     0.91293362389162536       48.77497136693362
   269   1      1.5235605371648095       6.342130830205515      46.644430953915119
   270   1      9.6270159266200324      3.7338659086459223       45.48777635804143
   271   1      9.2331104189922684     0.75733139430757968      44.677192060611851
   272   1      6.2187557415074375     0.58319697332331932      43.561619788453513
   273   1      3.4921320542120351      5.3737044618076952       44.51303093978823
   274   5      7.0558091243730177      2.1330996967705267       48.77264022992977
   275   5      2.0495945103207256      5.4393505682582628      47.801272317104889
   276   5      9.3728541782543839       4.241223923211388      46.930042618575158
   277   5      5.2221168376004368      4.5308788629029255      48.537168512585737
   278   5      1.8253028851572881      3.6538218567338716      50.239112106096044
   279   5       2.599815788377708      8.5113584453221787      49.977129468587052
   280   5      6.8191991923451454       4.406374048060858      50.511721613932679
   281   1      2.1941198196953948      4.9439597960750401       41.93124538485759
   282   5      10.507123110029045      6.9527846422842385      46.721818528314749
   283   5      9.5157933136985786      6.2764252541222136      51.344009255932598
   284   5       11.84343283344074      2.7859752559501332      49.151063930670347
   285   5      12.524156520115003      7.8486457418150843      48.201716947082282
   286   5      13.045565463926549      4.0156862984803432      47.145075771213783
   287   1      8.8357390758355994      4.6076683296655681      42.814745176892281
   288   1      6.6071508768238472       9.157155896137386      42.730122092159057
   289   1      5.3378509874507971      7.7361829528544863      45.157073463144712
   290   1      10.748023270476809      7.6373539264036161      45.272921515302656
   291   1      14.570852899299988      4.3810959341874369      42.933214552099933
   292   1      11.574635372715758      5.1113858005817425      43.856151148845967
   293   2      13.727154731579981      4.6314986745994577      49.501411716884093
   294   2      10.411483785539648      4.6609614487497861      42.703529993372769
   295   2      11.374822593020349      6.6427093705348526      44.181591030834412
   296   2      13.012702803675003      4.7846656572650774      43.216414110963846
   297   2      11.108938387844988      4.1197717293080167      45.031515728373044
   298   2      11.513383195671672      9.0176761268900769      45.405034120769031
   299   2      2.1840947694505806      5.6576950432456936      45.369975904539771
   300   2      9.4406233729751712      2.0950554859399957      45.494654604536606
   301   2       8.536724384229931      4.3116273525809117      44.432381444190412
   302   2       6.207965059641003      8.0710431627678876      43.809386920050372
   303   2      1.0549874785120943      4.4385625514133986      42.974483917726154
   304   2      3.3444167648766499      5.5876323703962294      42.938395835504224
   305   2      8.0133446188458741      8.7265362362430512      41.943350527591306
   306   2      8.3290878191572109      6.1128150629770808      42.385711282698786
   307   2      8.0243527464266702      3.5831978791946621      41.878862008826118
   308   2      3.9556913233380966      8.5481768306345991       45.16597824640494
   309   2      6.4640892600675688     0.38033038510996742       41.95075142547995
   310   2      7.6266157377666648     0.46956966538656048      44.315092033415134
   311   2      4.7610620504153607      6.2117796076142762      45.091645637385419
   312   2      14.683763609983213      5.6153248972186027      51.874570936650152
   313   2      12.107762034688449       8.448468860308882      50.702030253895174
   314   2      14.274742913454599      2.2226332749903306      48.536519833422652
   315   2      6.2427646276278317      8.1318431838399317      46.470740744511119
   316   2     0.58899519420250313      9.0882405733702942      51.666929644421025
   317   2      5.8157240616879378      6.7717748623062244      49.854090718275998
   318   2      7.8025013406747048      8.2588702314877729      50.943544634795821
   319   2      2.0051891117782228      7.8894523583111384      46.954640070219781
   320   2      14.265204160649834       8.400938516348198      52.385519818590126
   321   2      14.787602562145862      2.1363194419217892      52.021378301471557
   322   2     0.21250142588862253      7.5521286355808996      49.491675354127537
   323   3      1.2415099287706888       6.521656229285643      52.326566809252171
   324   1      5.8716551798668757      9.3934684427545481      47.473120082615893
   325   2      6.5564900822682182      9.1950985338659059      48.884673955964082
   326   2      5.3196102810987549      9.0926269231636265      51.245491814199745
   327   2      7.1731455454843331      6.2820421858674127      52.607066625643199
   328   2       14.93010811276066      9.8513958959363883       42.73310885642131
   329   1      15.065507021395847      5.0811936085486735      50.327848401835048
   330   2      1.8329318007182036      0.9934693694295611      49.279784321461619
   331   1      11.179189922537471     0.33464657075341359      52.108933001013291
   332   2      4.1878826853435944      9.4445764586772984      47.627154816643767
   333   5      2.5897090242386449      10.096960595415073      43.339443853387877
   334   2      14.469792480272584     0.16528983721316592      46.306511512908386
   335   5      12.113440001317826      6.7246007438175246      52.594282272779758
   336   2      3.5168133617994357     0.19845188877233966       51.16452976780289
   337   5      3.1883689056979012     0.27569448524667284      42.087350429500127
   338   1      3.3088410134292672     0.35831794113690896       49.59662861447373
   339   1      14.176315579385642     0.79357945282348341      52.737351883102022
   340   3      15.531835595740482     0.21482456345965398      47.180811422462256
   341   5       10.09977089865758      10.096227269032745      51.384077354291136
   342   2      3.0627602564152272      10.042444852248632      52.204719632037552
   343   5      6.1678705006396966     0.23125089987512121      47.336562778699587
   344   5      5.2120142614746063      1.2641227792273966      52.862665370210372
   345   5      15.521646254708992      14.397852240926547      42.199786328188544
   346   2      8.9294578032656489      16.624059640884813      52.859494019531482
   347   5      2.1284392950166828      15.066411807259525      52.800097694654099
   348   5      13.948602519474532      16.829583115467397      52.763994721881872
   349   1      15.046161909003533      12.184467120953537      51.454186675504054
   350   5       6.384594799774014      19.988855989373491      47.482289515220678
   351   5      5.2867134161127893      11.455350066426954      52.507253661098026
   352   1      9.1165871734846231      17.095806982256526      51.254507477850098
   353   1      15.572344469705694      19.765519099983671      48.615494085792427
   354   5      14.659989138023709      18.792024709770335      49.499060524713897
   355   1      5.0083430895802641      16.179780505195719      52.134313069367366
   356   5       10.65930507237187      16.158033930222317      46.793884418765401
   357   2      8.9198545411010102      18.685739694814131      51.201345045276966
   358   5      6.4395663756214505      19.400749437476513      50.341159152946616
   359   1    0.045125595271318986      12.115612883769117      42.069741486931093