(written by ASE)

9956 atoms
5 atom types

0.0                      30  xlo xhi
0.0                      30  ylo yhi
0.0      288.88831021568973  zlo zhi

Atoms # atomic

     1   2      2.0330826374443802     0.34396592999794345     0.75589997100652806
     2   2      7.8530084887758687      4.2435193574929455     0.78243329519874305
     3   2      11.771781342576057      14.210108919173338      3.4998136322075699
     4   2      7.5248488844208392      8.1228764199562882     0.43858134830625062
     5   2      10.884827134914921      7.1662262284939198     0.72267914274883804
     6   2      12.365947881397441      9.3981506673178608      0.8258944282019911
     7   2       10.37638383311219      12.867138633242686      5.3508482877049559
     8   2      2.5237917348277352      12.741371483542331     0.75665650012631147
     9   2       8.665984317801275      11.884131085069043     0.48934276490479794
    10   2       12.03383862018506      14.688770991663764     0.99537818098759345
    11   2      2.2714134651592373      2.8197540915771655      1.3103864169887134
    12   2      4.3961196008880847      2.6142889771573041       2.928112043076958
    13   2      2.5672987184463705      4.1398933924780197      3.6708873420403738
    14   2      1.1785344941621794      2.8518269065167239      5.4389373686143401
    15   2      3.9543409917379968      4.7349781201623848      1.4539871018401274
    16   2      13.784085729118836      12.926758118745283      2.0786326237531583
    17   2      14.976730321275721      12.248534671617975      4.1593340397318528
    18   2      6.2052731236079657      1.7665194634204751      1.1449289849194457
    19   2      9.1857893035098304      0.7794071791797279      3.8241997299325448
    20   2      6.7626650083481286      3.7898265987174256      3.0428973204079171
    21   2      6.5179057802366742      1.3229869013370081      3.7729407287735133
    22   2      12.619863450763093      11.337438535850879      4.9854264636798362
    23   2      11.254303778815967      4.6132810691167521      1.4259474284808675
    24   2      11.661330575958836     0.61748762968403526      4.0769943170159948
    25   2      10.629870517576961      3.0173493348785567      3.6639785869421648
    26   2      10.584876491533134      1.3841347801527277      1.6844411556929446
    27   2       13.52320620760176      2.3446199798832978      3.8235364558324889
    28   2     0.95440679514946269       5.387087568071653      5.1073665203560035
    29   2      3.2276299981053014      9.1150762586280507      5.5345132936785788
    30   2      2.6624173103938458      7.2424369827400712      4.0229213161146262
    31   2     0.45198267547519305      7.7357455167853892      5.6928971761679676
    32   2     0.27677772674098938      6.9985209112330207      3.0528136799919428
    33   2      5.1587376551692214      8.5908323838040168      1.8045254364025567
    34   2      9.1347501502147423      5.0003712116025554      2.9163550587695255
    35   2      5.4932274342727156      7.8486720274797914      4.3962244795813348
    36   2      8.1685393720910646      8.6476835558147851        4.36160325813242
    37   2      6.8096068258386113      6.2564267121415114      2.1335807242683487
    38   2      7.4671289096722031       6.552221896302683      5.7631320343446655
    39   2      10.034751672253941      8.9192017047139043      2.3865131837304081
    40   2      11.388984353237735      7.2548843355596881      5.4926803327075158
    41   2      13.944685105508885      6.9664898034250307      4.7064485212394089
    42   2      11.808380682496976      5.3033910665287918      3.8598985633559626
    43   2      12.275432611605616      7.7647051698688703       2.941170571707417
    44   2      10.182558429203249      10.175509611635519      4.7591334200275455
    45   2      2.8915706469842419      10.351122976991569      1.6960119544347592
    46   2     0.60095587677794882      11.677114641547721      2.0287248810282819
    47   2      2.9637021140325763      14.297079065381467      2.8828621465381947
    48   2      2.6292946778391979      13.195502259854655      5.2250948396001258
    49   2      5.1163240789604476      13.275234130109258      4.0692854739778852
    50   2      4.9934200092700163      13.601697418107198      1.4050446504560485
    51   2      5.1895317939940018      11.207445395121129      2.3657693499831471
    52   2      9.0109940638216397      14.727925242264474      3.8823012467411147
    53   2      8.3672099080989266      10.624940356668645       2.757436584615327
    54   2      7.2163877818900746      12.997255400774998      2.5073166073989483
    55   2      9.9454515455259447      12.570420578256202      2.7249105273105343
    56   2      13.373009683623472      13.747568201200199      5.7588672904841474
    57   2      9.3596518673092728      15.582368379059218     0.80719995136162492
    58   2      12.986678310676433      18.857492904543086       1.058328850652785
    59   2    0.032747937456814334      27.500499957626527      2.4516280228638583
    60   2      11.215745428032269      20.725448934733354     0.60094263030103445
    61   2      1.3361378308165295       27.83431479369165     0.39212137689563775
    62   2      8.4814161162507524       25.16923530818233     0.96804369782775279
    63   2      14.154305428319649      29.685152978741421      4.4201646004495743
    64   2      11.557373655721094      29.303591681742084     0.46522650638473811
    65   2      2.5055774173354632      18.941795342879896     0.99927589913863824
    66   2      3.7728163827702406      15.550628033085083       5.175106865461423
    67   2      3.4537212704994902      18.814846227428134      3.4793531919594334
    68   2      1.4946890174260727      18.545245355890241      5.2991207229140755
    69   2      4.8103503330304678      17.591271133065575      1.5988451236103389
    70   2      7.3400200797046873      16.064069215950997       5.298756845076646
    71   2      6.8874735469642996      16.234939820909368      2.7864639186723537
    72   2      7.1429888082396946      18.904235303268337      2.1885155445797513
    73   2      9.0054327766376048       17.37131432618547      3.7484757392889492
    74   2      14.064440939387417      27.132632501447091      3.9939450423868341
    75   2      13.933013709941324      15.425044315068284      2.8265313241723362
    76   2      10.473850062768484      18.981791984999241      2.2578460348387495
    77   2      11.267767461263606      18.066762160884959       4.728151465439943
    78   2      11.194781946502481      16.622345712336713      2.4305407654258744
    79   2      14.881657452296423      17.451813626840515      4.3878513496347935
    80   2      4.8582745649573278      20.187694189996154      1.6945388934929968
    81   2      3.5106229734631142      20.517643445689526      5.5158365843288024
    82   2      1.1696291566678798      21.624814956421755      5.2704224272645854
    83   2      2.8813011928167995      23.452073926985996      1.1353989397633697
    84   2      3.1886557681025023      23.075169423157824      4.6155527428154102
    85   2      4.4175615875053289       24.79181835151228      2.7630521670517609
    86   2      5.1502819642139963      24.678398720451685      5.4021836338215294
    87   2      5.5593013556100734      22.591269522774557       3.796335232589684
    88   2       8.051283274323298       21.67136736179199      4.4566445265394989
    89   2      7.1308374587458907      21.575556336865564      1.9635417008320175
    90   2      7.6124844381255334      23.939335163163225      3.0753503978284518
    91   2      13.650214198291145      24.915475660398581      2.4524850995012533
    92   2      10.179478630457997      20.310895299266765      5.4545834413140284
    93   2      10.300648645385881      22.873001733396809      5.0358163060114336
    94   2      11.714481184119217      24.912570157888311      5.2381897106175401
    95   2      14.540395543077489      21.141708624921193      4.8252978897665537
    96   2      14.064220728488387      22.356919605084506       2.298760027927564
    97   2      11.747008860028915      23.349033026185094      2.9509009253456497
    98   2      12.482626583267569      20.562126401805969      3.0346539138421353
    99   2       4.097291662207275      29.705278615350306      4.2625333467713133
   100   2      2.6289044890440221       28.13639243405909      2.6402674595943054
   101   2      2.0214006164399168      25.743772247059688      2.0009733313243672
   102   2      5.0967889320242641      29.371314860856142      1.7758128479251456
   103   2       12.55204899401139      27.278398358774574      1.7995455500979463
   104   2      7.7208606781264812      26.709058317264962      2.9936979819165401
   105   2      6.5775147739156719      27.039721895343007      5.5537903967374129
   106   2      7.3050214817966541      29.061521821838834      4.1920462294664418
   107   2      9.7779160080728484      25.076478939901051      3.4368740335772969
   108   2      5.1930252650199176      27.551853889461213      3.4536641612735868
   109   2      3.9401757752474467      17.957376534972028      5.9664289637257832
   110   2    0.024856243034758307      19.935636815474457     0.79249635600341872
   111   2    0.082190033366661197      23.849125910770038      5.6914193789277698
   112   2      17.704381788621575      3.3833391796453749     0.77734693361075102
   113   2      16.914527261296961     0.74803525866808762      0.5335194472535818
   114   2      24.712596849890275      1.6922789665534734     0.48311990383155751
   115   2      22.001790859062215      4.1328391374717857     0.92570395545249795
   116   2      22.530306837474718   0.0048063383876248483      0.5520199586347303
   117   2      29.817713264478591      1.9802284333499327      0.8006860356706369
   118   2      16.270661040464759      8.4295317213268532     0.43644749379557629
   119   2      19.578002447993178      5.2395141867775195     0.68971938334809846
   120   2      20.187539768834061      9.2434922691245536     0.76275353149220859
   121   2      21.836519275873151      6.7019682643491016     0.70910813715637033
   122   2      29.934764141614274     0.54233083269093618         5.6132308376203
   123   2      28.664963377706858      13.635662111786317      2.1836615222613815
   124   2      29.257909191518259      6.2668948626201058     0.51368340993213479
   125   2      29.331084884644643      12.130983624596009      4.1929078862490172
   126   2      24.500865055250696      13.533074531011572     0.52525175718739814
   127   2      15.316836661495856      2.2759434382991413      2.0017529124146947
   128   2      15.972916495010828      2.1064476345344265      4.5425471070839265
   129   2      17.794910101310403      4.1076860542856979      4.4431148732050971
   130   2      17.995033360660418      1.9141375674062675      2.7882371220185789
   131   2      18.467132087408284      1.5638803387665423      5.3483922724622914
   132   2      15.301889935567559      4.4297512418572236      3.5014730219952175
   133   2      23.749995345303624      4.7384419510862932       4.442712205059558
   134   2      24.934001065958949      3.4169568828836052      2.4220722014075524
   135   2      29.371761171675391      14.528047792130025      5.4699940583939162
   136   2      27.294001822818316      2.3161836070208484      1.2889391112166138
   137   2       25.22191038579108      2.4224467107255991      4.6747034313272806
   138   2      27.468926661902355      1.1435482004915762      4.8650089811609476
   139   2      25.872086104807043     0.86343884717329311      2.6801591314800888
   140   2      29.236772645540547      1.3182563298669046      3.0609191906691327
   141   2      26.320655076689768      4.8129884178140054      4.0587802235794541
   142   2      17.472713308525588       5.602606844567676      2.3180768634528874
   143   2      15.501019211059967      8.3729492056681032      2.9521715412581462
   144   2      17.995492411365195       9.337493529108686      2.1838368624686026
   145   2      16.457842485020045      6.5394939429150822      4.5687571248959742
   146   2      15.556068169501042      8.8243603905262606       5.566298031917789
   147   2      19.819236824845248      6.9544449253396463      5.0237666404902015
   148   2      20.592796003238654      8.4502977465383839      3.1243132609577136
   149   2      20.899980658459974      5.6476771988511478      2.9438913184909836
   150   2      23.711100737068794      8.3200049421981639      1.5417270370339369
   151   2      22.453248165755067      6.8545532529042905      4.7704285709664092
   152   2      24.311704138763254       9.900522320751131      3.7182147298657995
   153   2      28.718044021593023      8.5869034271156544      1.4766982701349749
   154   2      26.803784068378071      6.9913537823931771      5.3029590088299807
   155   2      25.301638888035448      7.3741904965039025      3.3052284709489403
   156   2      26.058129005638982       9.405714934169108      1.8381381780552744
   157   2       27.69644524416206      6.5346704410233425      2.6723795832894197
   158   2       15.67727375673782      10.768308335018714      2.0500044293184274
   159   2       16.50764367559179      13.269984173344689      2.2592872485207067
   160   2      18.712038232479646      14.244755225274176       3.231053581165888
   161   2        19.8860008677701      11.052700257815165      2.5808667970603456
   162   2      24.836198078480226      14.518765240816252      5.6684455685539419
   163   2      20.958202602565645       13.36651917503958      3.6444221994266357
   164   2      21.804030099713085      10.878134757135768      4.2133111350877783
   165   2      23.879832619271461      12.278195274682105      4.8662895060647955
   166   2      22.332794832856877      11.985465582319177      1.8253144194309385
   167   2      27.968914742953483      11.131281924500499      1.9424666505083581
   168   2      19.612700051234224      14.144224149323946       5.797907924161259
   169   2      18.660981403661371      19.059942352016897     0.88280384808689405
   170   2       24.54313840217975      16.154251725592896     0.40023928333569364
   171   2       29.16911864391297      15.955912698226674     0.62444958360678982
   172   2       16.05296494856168      24.309149397398272     0.76053649669210455
   173   2      16.961193485560347       21.66416893833815     0.46083034996422612
   174   2      29.359608949800649      24.246860269068108     0.44010041727676003
   175   2      19.321209626203785      28.342920236017825     0.38017908642577686
   176   2      25.262432457029778      29.608740158507274      4.7468355906704511
   177   2      26.273014873278171      27.905148945726637     0.84558540053579645
   178   2      17.593681407892273      15.543987954748911      1.2551001300677882
   179   2      16.512417058949147      15.672554469863922      3.5628392816902164
   180   2       19.12068434776609      18.188011037826648      3.3405763825103918
   181   2      16.449086656343198      19.376576980310951      5.6235288006264099
   182   2      20.480777190628466      16.011512048031317      4.2097377388616275
   183   2      21.617294891344738      18.513667711198984      3.9974858569461702
   184   2      23.335699030083497      18.469336815169765       2.106477909004667
   185   2      20.897207891239287      19.364152812437599      1.7343571748337825
   186   2      26.773053501423071      15.485609158058475      1.8016354141052844
   187   2      27.102140868926572      15.859059687800794       5.157488230435157
   188   2      25.800916184266733      18.053335041485226      1.4222576698329237
   189   2      29.100488857592016      19.488253279328344      4.9810911372100861
   190   2      28.956427108582414      16.044286008709417       3.371137520020028
   191   2      29.481907204080741      17.088141428032493      5.8770645477363246
   192   2      28.049810871523853      19.915796238888234      2.6331635340399022
   193   2      27.147135268360721      25.090795743414461      5.6616842859062482
   194   2      17.999750504068487      23.220137929473019      2.2198475193619345
   195   2      19.040375338320473      23.500421741575135       4.391941866379689
   196   2      17.089728669485119      21.640698259235656      4.2602672549078875
   197   2       19.03634298449812      20.871150090025193      2.9831570085975589
   198   2      22.566263597946747      20.911885043753951      2.8231565350150376
   199   2      24.350907145910014      23.070235640777277      2.4471322220195262
   200   2      24.274882987148811      21.510894874584952      4.6903423371143873
   201   2      26.737108154831311       20.45334460929303      5.0459492447256409
   202   2      28.354121673200773      22.026690396339667      1.3433290469813886
   203   2      25.176194591593578      20.601828697442038      2.2553609380358921
   204   2      25.581363327113539       24.93029052566186      3.7040838663819717
   205   2      26.860395897833584      24.059363639774229      1.7235048548589023
   206   2      28.829234120326365      21.978120884495759      4.2338457423327469
   207   2       15.12923389126226      26.765253732367473      1.5319947641680116
   208   2      19.812531858056875       26.21593026942039      1.0925550584471466
   209   2      19.008339182915314      28.463670621015428      5.4360970512186171
   210   2      18.034307909248874        25.9429089121384      4.7960548262435196
   211   2      16.536623087500125      28.178061260806853      4.5028373488510383
   212   2      18.916071380161775      27.789136332205992      3.0369705430414631
   213   2      22.874372697178945      24.990919665741927      5.3240788513292898
   214   2      21.344570958838901       28.21529248769173      2.2584796250343904
   215   2      23.790090184774641      27.956855897801759      1.5423167616078006
   216   2      23.287213359312222      27.823557320982523      4.4138554195323181
   217   2      24.675867567930986      25.601155498222042      1.3427913558406956
   218   2      23.082429065925844      29.989419869179706      3.2310764244353938
   219   2      29.742157779422175       26.26695491465043      4.6605997941974593
   220   2      28.133487511669841      29.762021700939947      1.2506742391495393
   221   2       27.43070345701166      26.697560206602688      3.5617363307667134
   222   2      28.906019288074269      28.849722334488654      4.2318783395070918
   223   2      25.114362017897125      26.714346347147693      5.4628238898122499
   224   2      20.317624943124301      25.170616749072256      5.9308873548591734
   225   2      15.011628049910669      19.904590798638154      2.5345252654287904
   226   2      15.163691369102107      17.441100337140057      1.7943127194951674
   227   2      19.862632259406912      18.185771055509505      5.8265689869094937
   228   1      1.4036503545785992      1.8815094277801392     0.38198587732615152
   229   1       5.939957366214685     0.25240871965533174     0.59078595694860081
   230   1      13.997951723028528      12.260967010002446      5.4177882234054602
   231   1      3.2648131718915865      3.5854575434892828      2.3542954289451861
   232   1      2.0335082135441356      4.1590908364653005      5.1804621828233408
   233   1       5.961785501146597      2.3979284920338859      2.7262950055464827
   234   1      7.7253689587584722     0.57366044244055903      4.6067622704268913
   235   1      7.6591754109848047      4.8612633855233831      2.2848727116352805
   236   1      10.704822982443906      4.4723731939865417       2.941386424245771
   237   1      13.139286526289411     0.93576013216608689      4.6506944633140463
   238   1      10.492884161619106       1.441366837277867      3.2691850172772736
   239   1      10.298548192815833      13.636702183280242      3.8764240572890785
   240   1      1.0741933116160602      6.8605221516443766      4.4401172923631274
   241   1      3.9250673728887571      7.7622963402542382      4.9525808126406057
   242   1      4.5272157633980799      10.043673357982339      1.4357325268206438
   243   1      6.1582975536103106        7.41357506676112      1.0620194849841271
   244   1      6.9232866130851898      8.0458269550827648      5.2628288546312234
   245   1      9.1839285030908435      9.5947649494234923      3.6227052982319776
   246   1        11.3787393597947      8.3769517188911582      1.7151975086186866
   247   1      12.348264973708945      6.7645020429913068      4.1911778341690118
   248   1      1.8196505430540217      11.321229911865171       1.056073168251892
   249   1      3.4312183317208791      13.935744865205608      1.3630735283062663
   250   1      3.6982806301860345      14.127432098837151      4.3625812943009876
   251   1      8.5628547234095151       12.09784318513648      2.0985463751235685
   252   1      5.5943726461633485      12.723603081587745      2.6348443439934432
   253   1      11.031521097859869      11.400370466835662      5.4911714996795604
   254   1      12.896357632261203       14.23848815463962      2.3387432506547796
   255   1      14.974201353317294      2.8054578841031956      3.4521524212801897
   256   1      10.987284376063393       15.93538647312733     0.96184962634053761
   257   1      13.838494659148845      26.537277090357364      2.4689592196547778
   258   1      11.802486191232248       27.72749174784979      0.4911001814214373
   259   1      3.8608745567297458       18.93085210829765      1.9228546277537577
   260   1      3.0697621488792093      18.969468889597575      5.0358236745791771
   261   1      8.1046759531808146      16.056139382220707      3.9349451743993815
   262   1      6.4843008410526544      17.408208096549558      1.7738939268059468
   263   1      14.577131765123008       18.87927856884076      1.3255293113137727
   264   1      10.458752286259861      17.766014235039719       3.294346801319691
   265   1      11.813906422845349      19.777023507881015      1.7936580200927497
   266   1      4.6018944281543659      23.828218514009841      4.1363904884695657
   267   1      2.7142475776847803      21.927578437396186      5.6999919766342595
   268   1      3.3075065039136433       24.89845490557218      1.5551908639166427
   269   1      6.4666327174302358       20.17573226494596      1.4162359802735767
   270   1      7.1539273823435119      22.430017163312055      3.3515316798684442
   271   1      9.3504608646148384      21.692316015976779      5.4570536761209505
   272   1      10.880959151944664      24.055728402096104      4.1059721964422957
   273   1      13.036736658907063      23.491072259474322      1.9199081475196638
   274   1      14.066111923149954      21.055225563114966       3.249812631503751
   275   1       4.177669589056868      28.735386314560099      2.9396887538634933
   276   1      1.5223974345950295       27.24420846886342      1.8541798854202016
   277   1      8.3448814687003399      25.254445540008053      2.5911828178823133
   278   1      6.7391648957931967      27.556137869882757      4.0553432292182165
   279   1    0.034874785808702291      18.655342055769708      5.9076499717006712
   280   1      3.7132198544420509      29.563620268064923      5.9318720690597582
   281   1      14.909962398091061      28.246330821114604      4.8676907776272458
   282   1     0.12284550145624248      25.462072727939621      5.9547319554193194
   283   1      17.975328903412347      5.0231647901500738     0.90317645829098592
   284   1      29.074185583628484      12.115168510966569      2.6037706111444905
   285   1      23.073165032291676      12.740693092737029     0.60121021008178843
   286   1      16.935884605300394       2.069329961486257      1.4591147872678434
   287   1      17.600855722112108      2.4961581304498379      4.2830141291463448
   288   1      25.023816530039092      3.8791485878255463      3.9509353179260742
   289   1      25.670629861670125      2.1442989967333985      1.6481321714313779
   290   1      28.590914122211295      1.3658841269336541      1.5603643689675266
   291   1      26.010514026708872     0.98843761712410227      4.2883935548926218
   292   1      28.931063940184092     0.49520822083455485      4.3969244426005289
   293   1      16.725883853307451      5.2223858331920656       3.748798882633956
   294   1      15.348385176815151      7.6804067060480312      4.3958209110481912
   295   1       19.67303920985951      9.4557717221034778      2.2252748481596996
   296   1      16.381401740927824      9.2643358497568098      1.8432499117358034
   297   1      21.056836054930002      5.4094930605504148      1.3072445895818208
   298   1      23.237108186870547      5.7323934518005704      5.6631766433513642
   299   1      20.998201081662511      7.0183632314255533      3.9223896361514861
   300   1      24.822821826336337      8.8076102323293615      2.6469645458620263
   301   1       27.55598563281864      9.7248673646361308      1.2634258496032587
   302   1      29.023492807645006      7.0638528992681513      1.9745161217569278
   303   1      26.513343474990968      6.4729424157663979      3.8127076393085493
   304   1      15.289958799089145      12.264201298326601      2.5655486814417974
   305   1      17.310516592497571      14.665980590527786      2.5214240229185023
   306   1       19.93932374547887      14.483549130241007       4.225974642281507
   307   1       29.23726489091673       12.92725767095682      5.6379302608000268
   308   1      21.188118733242501      11.873417278602922      3.0824319834266092
   309   1      23.377472894008399      10.752377864357225      4.7375850398353601
   310   1       26.08207136527075      16.623323182389036     0.73972498280914334
   311   1      17.343018241799626      23.236399431848913     0.78236099941558024
   312   1      27.913072393411888      23.437544039936416     0.69253926907669694
   313   1      24.850794212057117      27.072682314518499     0.75519758612735899
   314   1      26.338684535216007      26.012356590645833      4.5684971730840189
   315   1      19.351344998955305      19.470392858921318      2.2903232412821599
   316   1       15.64236324793281      17.960344365224039      5.7248426513891033
   317   1      15.101927612466731      16.472393629083815      3.1259715434880491
   318   1      20.287127340008059      17.690227845352982      4.3517248450031687
   319   1      24.620196474361386       19.17444859031411      1.4155351314697528
   320   1      22.149847927528629       19.38343179866904       2.734038648768895
   321   1       28.45210563185174      15.267971876123932       1.950742391961235
   322   1      28.777838309587427      15.963240189483725      4.9937057703145138
   323   1        18.8645450819164      24.657404573379591      5.5054804000104482
   324   1      18.339968060392721      22.321144972205087       3.490540144485216
   325   1      16.062808393655562      20.997515826589797       5.326358919222244
   326   1      24.110414142833733      21.581072117963878      3.0558525475657636
   327   1      28.104783858731118      20.464793442850958      4.1569692839268768
   328   1      28.508785222768108      20.464178081684299      1.1538184618409204
   329   1      25.346315056650305      20.864912428002857      5.8299610048571688
   330   1      25.343023285101903      24.368268473729895      2.2283904911147872
   331   1      29.724594413226239      22.270609790125786      5.5970689408318606
   332   1      18.079864712172956      27.562152685341168      4.4485207083982559
   333   1      19.936261505780418      27.686414774467991      1.8420401187949196
   334   1      23.653128921395581      29.374676611085626      4.7527477767822441
   335   1      22.693021595769782      29.106460436475654      1.9079666097586667
   336   1      23.479827402658401      26.525019663491509      5.4601565497661326
   337   1      29.023602210527667      27.307736958259149      3.6948803487715698
   338   2      2.0330826374443802     0.34396592999794345      6.7336185198861926
   339   2      7.8530084887758687      4.2435193574929455      6.7601518440784076
   340   2      11.771781342576057      14.210108919173338      9.4775321810872342
   341   2      7.5248488844208392      8.1228764199562882      6.4162998971859153
   342   2      10.884827134914921      7.1662262284939198      6.7003976916285026
   343   2      12.365947881397441      9.3981506673178608      6.8036129770816558
   344   2       10.37638383311219      12.867138633242686      11.328566836584621
   345   2      2.5237917348277352      12.741371483542331      6.7343750490059762
   346   2       8.665984317801275      11.884131085069043      6.4670613137844626
   347   2       12.03383862018506      14.688770991663764      6.9730967298672581
   348   2      2.2714134651592373      2.8197540915771655      7.2881049658683779
   349   2      4.3961196008880847      2.6142889771573041      8.9058305919566223
   350   2      2.5672987184463705      4.1398933924780197      9.6486058909200381
   351   2      1.1785344941621794      2.8518269065167239      11.416655917494005
   352   2      3.9543409917379968      4.7349781201623848      7.4317056507197918
   353   2      13.784085729118836      12.926758118745283       8.056351172632823
   354   2      14.976730321275721      12.248534671617975      10.137052588611517
   355   2      6.2052731236079657      1.7665194634204751      7.1226475337991104
   356   2      9.1857893035098304      0.7794071791797279      9.8019182788122095
   357   2      6.7626650083481286      3.7898265987174256      9.0206158692875817
   358   2      6.5179057802366742      1.3229869013370081      9.7506592776531775
   359   2      12.619863450763093      11.337438535850879      10.963145012559501