ITEM: TIME
0
ITEM: TIMESTEP
0
ITEM: NUMBER OF ATOMS
4
ITEM: BOX BOUNDS xy xz yz ff ff ff
0.0000000000000000e+00 1.5000000000000000e+01 0.0000000000000000e+00
0.0000000000000000e+00 1.5000000000000000e+01 0.0000000000000000e+00
0.0000000000000000e+00 1.5000000000000000e+01 0.0000000000000000e+00
ITEM: ATOMS id element xu yu zu vx vy vz fx fy fz
1 C 7.500000000000000 7.500000000000000 7.500000000000000 0.000 0.000 0.000 0.647 0.380 0.437
2 H 7.500000000000000 7.500000000000000 8.592173562719999 0.000 0.000 0.000 -0.691 -0.407 -0.373
3 H 7.027885564112999 6.980651647312000 6.659913322762000 0.000 0.000 0.000 0.079 0.054 0.433
4 F 8.719419754145999 8.014758741125000 7.172279615037000 0.000 0.000 0.000 -0.034 -0.027 -0.497
ITEM: TIME
0.001
ITEM: TIMESTEP
1
ITEM: NUMBER OF ATOMS
4
ITEM: BOX BOUNDS xy xz yz ff ff ff
0.0000000000000000e+00 1.5000000000000000e+01 0.0000000000000000e+00
0.0000000000000000e+00 1.5000000000000000e+01 0.0000000000000000e+00
0.0000000000000000e+00 1.5000000000000000e+01 0.0000000000000000e+00
ITEM: ATOMS id element xu yu zu vx vy vz fx fy fz
1 C 7.525936328948380 7.515250818312774 7.517538099118452 0.000 0.000 0.000 -0.156 -0.155 -1.270
2 H 7.472268976923756 7.483683465627380 8.577200556119921 0.000 0.000 0.000 -0.395 -0.273 0.683
3 H 7.031056405533625 6.982812224541996 6.677277416832113 0.000 0.000 0.000 0.210 0.269 0.819
4 F 8.718043610440034 8.013663883541646 7.152350427252914 0.000 0.000 0.000 0.342 0.159 -0.233
ITEM: TIME
0.002
ITEM: TIMESTEP
2
ITEM: NUMBER OF ATOMS
4
ITEM: BOX BOUNDS xy xz yz ff ff ff
0.0000000000000000e+00 1.5000000000000000e+01 0.0000000000000000e+00
0.0000000000000000e+00 1.5000000000000000e+01 0.0000000000000000e+00
0.0000000000000000e+00 1.5000000000000000e+01 0.0000000000000000e+00
ITEM: ATOMS id element xu yu zu vx vy vz fx fy fz
1 C 7.548429406237788 7.526995363629786 7.505684713990143 0.000 0.000 0.000 -0.434 -0.047 -0.040
2 H 7.435150969198933 7.460901763574054 8.578006880185550 0.000 0.000 0.000 -0.071 -0.101 0.100
3 H 7.039123356391839 6.991250296100452 6.713811076609451 0.000 0.000 0.000 -0.076 -0.085 0.091
4 F 8.724601594321911 8.016262972331477 7.126863823178051 0.000 0.000 0.000 0.581 0.234 -0.152
ITEM: TIME
0.003
ITEM: TIMESTEP
3
ITEM: NUMBER OF ATOMS
4
ITEM: BOX BOUNDS xy xz yz ff ff ff
0.0000000000000000e+00 1.5000000000000000e+01 0.0000000000000000e+00
0.0000000000000000e+00 1.5000000000000000e+01 0.0000000000000000e+00
0.0000000000000000e+00 1.5000000000000000e+01 0.0000000000000000e+00
ITEM: ATOMS id element xu yu zu vx vy vz fx fy fz
1 C 7.537754042786500 7.526131911315131 7.504243185016898 0.000 0.000 0.000 0.289 0.334 0.095
2 H 7.432053506565582 7.457487407673836 8.580675618346124 0.000 0.000 0.000 -0.050 -0.089 -0.027
3 H 7.037380090405487 6.989285290717677 6.717414276871250 0.000 0.000 0.000 -0.143 -0.187 -0.102
4 F 8.740117687710624 8.022505786047441 7.122033411984385 0.000 0.000 0.000 -0.096 -0.059 0.034
ITEM: TIME
0.004
ITEM: TIMESTEP
4
ITEM: NUMBER OF ATOMS
4
ITEM: BOX BOUNDS xy xz yz ff ff ff
0.0000000000000000e+00 1.5000000000000000e+01 0.0000000000000000e+00
0.0000000000000000e+00 1.5000000000000000e+01 0.0000000000000000e+00
0.0000000000000000e+00 1.5000000000000000e+01 0.0000000000000000e+00
ITEM: ATOMS id element xu yu zu vx vy vz fx fy fz
1 C 7.537510864527531 7.531963136529082 7.505257909196462 0.000 0.000 0.000 0.257 0.251 -0.120
2 H 7.429458246047322 7.453994916518410 8.581588982605153 0.000 0.000 0.000 -0.004 -0.069 -0.050
3 H 7.033760936845922 6.984722455570678 6.717413862181390 0.000 0.000 0.000 -0.009 -0.057 0.066
4 F 8.746575281030406 8.024729887198983 7.120105739550409 0.000 0.000 0.000 -0.244 -0.125 0.103
ITEM: TIME
0.005
ITEM: TIMESTEP
5
ITEM: NUMBER OF ATOMS
4
ITEM: BOX BOUNDS xy xz yz ff ff ff
0.0000000000000000e+00 1.5000000000000000e+01 0.0000000000000000e+00
0.0000000000000000e+00 1.5000000000000000e+01 0.0000000000000000e+00
0.0000000000000000e+00 1.5000000000000000e+01 0.0000000000000000e+00
ITEM: ATOMS id element xu yu zu vx vy vz fx fy fz
1 C 7.540379613959550 7.535382918596977 7.504010733525393 0.000 0.000 0.000 0.064 0.152 -0.083
2 H 7.429147241866469 7.452859348244919 8.581123870929297 0.000 0.000 0.000 0.008 -0.063 -0.086
3 H 7.033294507697621 6.983620163062227 6.718162520132414 0.000 0.000 0.000 0.029 -0.020 0.110
4 F 8.744483963852103 8.023547966423058 7.121069370422680 0.000 0.000 0.000 -0.101 -0.069 0.058
ITEM: TIME
0.006
ITEM: TIMESTEP
6
ITEM: NUMBER OF ATOMS
4
ITEM: BOX BOUNDS xy xz yz ff ff ff
0.0000000000000000e+00 1.5000000000000000e+01 0.0000000000000000e+00
0.0000000000000000e+00 1.5000000000000000e+01 0.0000000000000000e+00
0.0000000000000000e+00 1.5000000000000000e+01 0.0000000000000000e+00
ITEM: ATOMS id element xu yu zu vx vy vz fx fy fz
1 C 7.541722274400202 7.538575415049897 7.502269034673827 0.000 0.000 0.000 -0.057 0.114 0.001
2 H 7.429306758977656 7.451540297742133 8.579321036766066 0.000 0.000 0.000 0.008 -0.060 -0.089
3 H 7.033911330303992 6.983198714017104 6.720482527410608 0.000 0.000 0.000 0.022 -0.034 0.079
4 F 8.742364962752772 8.022095968890632 7.122293894904452 0.000 0.000 0.000 0.027 -0.020 0.010
ITEM: TIME
0.007
ITEM: TIMESTEP
7
ITEM: NUMBER OF ATOMS
4
ITEM: BOX BOUNDS xy xz yz ff ff ff
0.0000000000000000e+00 1.5000000000000000e+01 0.0000000000000000e+00
0.0000000000000000e+00 1.5000000000000000e+01 0.0000000000000000e+00
0.0000000000000000e+00 1.5000000000000000e+01 0.0000000000000000e+00
ITEM: ATOMS id element xu yu zu vx vy vz fx fy fz
1 C 7.532844792080942 7.557986611639348 7.501930859823389 0.000 0.000 0.000 0.052 0.213 -0.369
2 H 7.430721187251478 7.441362620320764 8.564341094428171 0.000 0.000 0.000 -0.004 -0.086 0.357
3 H 7.037570867106626 6.977564640813913 6.733862088037033 0.000 0.000 0.000 -0.016 -0.083 -0.024
4 F 8.746168479752999 8.018496531859112 7.124232451142926 0.000 0.000 0.000 -0.032 -0.045 0.037
ITEM: TIME
0.008
ITEM: TIMESTEP
8
ITEM: NUMBER OF ATOMS
4
ITEM: BOX BOUNDS xy xz yz ff ff ff
0.0000000000000000e+00 1.5000000000000000e+01 0.0000000000000000e+00
0.0000000000000000e+00 1.5000000000000000e+01 0.0000000000000000e+00
0.0000000000000000e+00 1.5000000000000000e+01 0.0000000000000000e+00
ITEM: ATOMS id element xu yu zu vx vy vz fx fy fz
1 C 7.521819388490568 7.590243794594970 7.492283616326932 0.000 0.000 0.000 0.012 0.246 -0.099
2 H 7.432585409980584 7.425101555925653 8.552413165702045 0.000 0.000 0.000 0.015 -0.059 0.316
3 H 7.042249182728155 6.967685546356650 6.751831011379775 0.000 0.000 0.000 -0.027 -0.139 -0.193
4 F 8.750651344285091 8.012379519418303 7.127838699573672 0.000 0.000 0.000 -0.000 -0.047 -0.024
ITEM: TIME
0.009000000000000001
ITEM: TIMESTEP
9
ITEM: NUMBER OF ATOMS
4
ITEM: BOX BOUNDS xy xz yz ff ff ff
0.0000000000000000e+00 1.5000000000000000e+01 0.0000000000000000e+00
0.0000000000000000e+00 1.5000000000000000e+01 0.0000000000000000e+00
0.0000000000000000e+00 1.5000000000000000e+01 0.0000000000000000e+00
ITEM: ATOMS id element xu yu zu vx vy vz fx fy fz
1 C 7.521826677668482 7.599993501374368 7.488486926939995 0.000 0.000 0.000 -0.269 -0.045 0.192
2 H 7.433167468352653 7.422445734487296 8.562937380605275 0.000 0.000 0.000 0.052 0.014 -0.176
3 H 7.041499738784435 6.962465316833107 6.745790417845024 0.000 0.000 0.000 0.120 0.048 0.037
4 F 8.750811445315151 8.010505865593736 7.127151769647658 0.000 0.000 0.000 0.096 -0.018 -0.053
ITEM: TIME
0.01
ITEM: TIMESTEP
10
ITEM: NUMBER OF ATOMS
4
ITEM: BOX BOUNDS xy xz yz ff ff ff
0.0000000000000000e+00 1.5000000000000000e+01 0.0000000000000000e+00
0.0000000000000000e+00 1.5000000000000000e+01 0.0000000000000000e+00
0.0000000000000000e+00 1.5000000000000000e+01 0.0000000000000000e+00
ITEM: ATOMS id element xu yu zu vx vy vz fx fy fz
1 C 7.519274464293226 7.602749053308760 7.489069114595796 0.000 0.000 0.000 -0.229 -0.075 0.149
2 H 7.433854782528638 7.421713222875796 8.564704210823759 0.000 0.000 0.000 0.052 0.019 -0.219
3 H 7.042395542105942 6.961221514197743 6.744171891226586 0.000 0.000 0.000 0.137 0.087 0.097
4 F 8.751780542069048 8.009726628556702 7.126421279062739 0.000 0.000 0.000 0.040 -0.031 -0.027
ITEM: TIME
0.011
ITEM: TIMESTEP
11
ITEM: NUMBER OF ATOMS
4
ITEM: BOX BOUNDS xy xz yz ff ff ff
0.0000000000000000e+00 1.5000000000000000e+01 0.0000000000000000e+00
0.0000000000000000e+00 1.5000000000000000e+01 0.0000000000000000e+00
0.0000000000000000e+00 1.5000000000000000e+01 0.0000000000000000e+00
ITEM: ATOMS id element xu yu zu vx vy vz fx fy fz
1 C 7.515158631185032 7.601611166069756 7.491682362639801 0.000 0.000 0.000 -0.023 0.056 -0.039
2 H 7.434796701145294 7.421994917155241 8.561006489643404 0.000 0.000 0.000 0.029 -0.018 -0.017
3 H 7.044823331085583 6.962658033766598 6.745762142321859 0.000 0.000 0.000 0.068 0.020 0.037
4 F 8.752526665564629 8.009146301338344 7.125915503206526 0.000 0.000 0.000 -0.075 -0.058 0.019
ITEM: TIME
0.012
ITEM: TIMESTEP
12
ITEM: NUMBER OF ATOMS
4
ITEM: BOX BOUNDS xy xz yz ff ff ff
0.0000000000000000e+00 1.5000000000000000e+01 0.0000000000000000e+00
0.0000000000000000e+00 1.5000000000000000e+01 0.0000000000000000e+00
0.0000000000000000e+00 1.5000000000000000e+01 0.0000000000000000e+00
ITEM: ATOMS id element xu yu zu vx vy vz fx fy fz
1 C 7.514280339350357 7.603798381322226 7.490167204153988 0.000 0.000 0.000 -0.064 0.068 0.083
2 H 7.435931765002413 7.421295994751270 8.560352279919961 0.000 0.000 0.000 0.017 -0.015 -0.045
3 H 7.047478508757159 6.963420285143486 6.747190123087518 0.000 0.000 0.000 0.023 -0.032 -0.021
4 F 8.749614717026503 8.006895756823983 7.126656890650123 0.000 0.000 0.000 0.024 -0.020 -0.017
ITEM: TIME
0.013
ITEM: TIMESTEP
13
ITEM: NUMBER OF ATOMS
4
ITEM: BOX BOUNDS xy xz yz ff ff ff
0.0000000000000000e+00 1.5000000000000000e+01 0.0000000000000000e+00
0.0000000000000000e+00 1.5000000000000000e+01 0.0000000000000000e+00
0.0000000000000000e+00 1.5000000000000000e+01 0.0000000000000000e+00
ITEM: ATOMS id element xu yu zu vx vy vz fx fy fz
1 C 7.510903324135748 7.608464594637800 7.492234504297556 0.000 0.000 0.000 -0.056 0.046 -0.102
2 H 7.437616036806288 7.420058991067326 8.557936254196825 0.000 0.000 0.000 0.005 -0.036 0.077
3 H 7.050738223772526 6.962766463803494 6.747583670027135 0.000 0.000 0.000 0.008 -0.012 0.024
4 F 8.748047753720034 8.004120365850559 7.126612076577013 0.000 0.000 0.000 0.042 0.002 0.001
ITEM: TIME
0.014
ITEM: TIMESTEP
14
ITEM: NUMBER OF ATOMS
4
ITEM: BOX BOUNDS xy xz yz ff ff ff
0.0000000000000000e+00 1.5000000000000000e+01 0.0000000000000000e+00
0.0000000000000000e+00 1.5000000000000000e+01 0.0000000000000000e+00
0.0000000000000000e+00 1.5000000000000000e+01 0.0000000000000000e+00
ITEM: ATOMS id element xu yu zu vx vy vz fx fy fz
1 C 7.506607302304974 7.613618715614921 7.491388807800948 0.000 0.000 0.000 0.005 0.052 -0.054
2 H 7.439187974855967 7.418091859542705 8.557855584853964 0.000 0.000 0.000 -0.007 -0.030 0.036
3 H 7.053719281633747 6.961896859230331 6.748527873338687 0.000 0.000 0.000 -0.019 -0.028 0.012
4 F 8.747790782715825 8.001802978305060 7.126594246837649 0.000 0.000 0.000 0.021 0.006 0.006
ITEM: TIME
0.015
ITEM: TIMESTEP
15
ITEM: NUMBER OF ATOMS
4
ITEM: BOX BOUNDS xy xz yz ff ff ff
0.0000000000000000e+00 1.5000000000000000e+01 0.0000000000000000e+00
0.0000000000000000e+00 1.5000000000000000e+01 0.0000000000000000e+00
0.0000000000000000e+00 1.5000000000000000e+01 0.0000000000000000e+00
ITEM: ATOMS id element xu yu zu vx vy vz fx fy fz
1 C 7.506761249391955 7.615241412702469 7.489700675532882 0.000 0.000 0.000 -0.020 0.025 0.056
2 H 7.438971330822119 7.417165206860273 8.558976829811538 0.000 0.000 0.000 -0.002 -0.009 -0.060
3 H 7.053121790961729 6.961017601930901 6.748915142621719 0.000 0.000 0.000 -0.003 -0.018 0.010
4 F 8.748450973841669 8.001986189328996 7.126773859253973 0.000 0.000 0.000 0.025 0.003 -0.006
ITEM: TIME
0.016
ITEM: TIMESTEP
16
ITEM: NUMBER OF ATOMS
4
ITEM: BOX BOUNDS xy xz yz ff ff ff
0.0000000000000000e+00 1.5000000000000000e+01 0.0000000000000000e+00
0.0000000000000000e+00 1.5000000000000000e+01 0.0000000000000000e+00
0.0000000000000000e+00 1.5000000000000000e+01 0.0000000000000000e+00
ITEM: ATOMS id element xu yu zu vx vy vz fx fy fz
1 C 7.506443826040108 7.617181232205741 7.489522434076163 0.000 0.000 0.000 -0.026 -0.002 0.033
2 H 7.438748520997792 7.416169294590034 8.558584170182259 0.000 0.000 0.000 0.004 -0.002 -0.066
3 H 7.052541037352350 6.959860190675283 6.749475734687499 0.000 0.000 0.000 0.019 0.011 0.033
4 F 8.749571962098891 8.002199689078470 7.126784163504601 0.000 0.000 0.000 0.003 -0.006 0.000
ITEM: TIME
0.017
ITEM: TIMESTEP
17
ITEM: NUMBER OF ATOMS
4
ITEM: BOX BOUNDS xy xz yz ff ff ff
0.0000000000000000e+00 1.5000000000000000e+01 0.0000000000000000e+00
0.0000000000000000e+00 1.5000000000000000e+01 0.0000000000000000e+00
0.0000000000000000e+00 1.5000000000000000e+01 0.0000000000000000e+00
ITEM: ATOMS id element xu yu zu vx vy vz fx fy fz
1 C 7.505924919693126 7.617389328704318 7.490113551327488 0.000 0.000 0.000 -0.002 0.015 -0.023
2 H 7.438799443679260 7.415996245500889 8.557304667659379 0.000 0.000 0.000 0.003 -0.011 -0.011
3 H 7.052817756424412 6.959911224209112 6.750160509899900 0.000 0.000 0.000 0.012 0.005 0.026
4 F 8.749763223434238 8.002113606755735 7.126787776257977 0.000 0.000 0.000 -0.013 -0.009 0.008
ITEM: TIME
0.018
ITEM: TIMESTEP
18
ITEM: NUMBER OF ATOMS
4
ITEM: BOX BOUNDS xy xz yz ff ff ff
0.0000000000000000e+00 1.5000000000000000e+01 0.0000000000000000e+00
0.0000000000000000e+00 1.5000000000000000e+01 0.0000000000000000e+00
0.0000000000000000e+00 1.5000000000000000e+01 0.0000000000000000e+00
ITEM: ATOMS id element xu yu zu vx vy vz fx fy fz
1 C 7.505736227270139 7.617986655408866 7.489404475025109 0.000 0.000 0.000 -0.002 0.031 0.021
2 H 7.438905749381997 7.415553095686164 8.556569175383228 0.000 0.000 0.000 -0.000 -0.009 -0.012
3 H 7.053324354616506 6.960120831433585 6.751311670141000 0.000 0.000 0.000 -0.003 -0.018 -0.006
4 F 8.749339006180065 8.001749822841086 7.127081185280507 0.000 0.000 0.000 0.005 -0.004 -0.003
ITEM: TIME
0.019
ITEM: TIMESTEP
19
ITEM: NUMBER OF ATOMS
4
ITEM: BOX BOUNDS xy xz yz ff ff ff
0.0000000000000000e+00 1.5000000000000000e+01 0.0000000000000000e+00
0.0000000000000000e+00 1.5000000000000000e+01 0.0000000000000000e+00
0.0000000000000000e+00 1.5000000000000000e+01 0.0000000000000000e+00
ITEM: ATOMS id element xu yu zu vx vy vz fx fy fz
1 C 7.505439710808821 7.620055502976056 7.489478156095020 0.000 0.000 0.000 -0.026 0.013 -0.016
2 H 7.439024253707619 7.414635733431382 8.555131363065788 0.000 0.000 0.000 0.001 -0.010 0.022
3 H 7.053788324526911 6.959571481764758 6.752434830769256 0.000 0.000 0.000 -0.000 -0.008 -0.000
4 F 8.749053043982711 8.001147688741582 7.127322167144212 0.000 0.000 0.000 0.025 0.004 -0.005
ITEM: TIME
0.02
ITEM: TIMESTEP
20
ITEM: NUMBER OF ATOMS
4
ITEM: BOX BOUNDS xy xz yz ff ff ff
0.0000000000000000e+00 1.5000000000000000e+01 0.0000000000000000e+00
0.0000000000000000e+00 1.5000000000000000e+01 0.0000000000000000e+00
0.0000000000000000e+00 1.5000000000000000e+01 0.0000000000000000e+00
ITEM: ATOMS id element xu yu zu vx vy vz fx fy fz
1 C 7.504292500896831 7.622221077238504 7.489003197099329 0.000 0.000 0.000 -0.009 0.007 -0.005
2 H 7.439161164200134 7.413541245793200 8.554655175573032 0.000 0.000 0.000 0.001 -0.003 0.009
3 H 7.054172784300661 6.958854330556373 6.753366014901925 0.000 0.000 0.000 0.001 -0.003 -0.003
4 F 8.749678879157605 8.000793755127704 7.127342138936488 0.000 0.000 0.000 0.006 -0.000 -0.002
ITEM: TIME
0.021
ITEM: TIMESTEP
21
ITEM: NUMBER OF ATOMS
4
ITEM: BOX BOUNDS xy xz yz ff ff ff
0.0000000000000000e+00 1.5000000000000000e+01 0.0000000000000000e+00
0.0000000000000000e+00 1.5000000000000000e+01 0.0000000000000000e+00
0.0000000000000000e+00 1.5000000000000000e+01 0.0000000000000000e+00
ITEM: ATOMS id element xu yu zu vx vy vz fx fy fz
1 C 7.504037790048294 7.622420986540345 7.488860291359651 0.000 0.000 0.000 -0.001 0.006 0.007
2 H 7.439200896522032 7.413448135114617 8.554932737789054 0.000 0.000 0.000 0.001 -0.001 -0.004
3 H 7.054207013548419 6.958757391234720 6.753284877355021 0.000 0.000 0.000 0.002 -0.003 -0.002
4 F 8.749859626035398 8.000783895826098 7.127288621753293 0.000 0.000 0.000 -0.002 -0.003 -0.001
ITEM: TIME
0.022
ITEM: TIMESTEP
22
ITEM: NUMBER OF ATOMS
4
ITEM: BOX BOUNDS xy xz yz ff ff ff
0.0000000000000000e+00 1.5000000000000000e+01 0.0000000000000000e+00
0.0000000000000000e+00 1.5000000000000000e+01 0.0000000000000000e+00
0.0000000000000000e+00 1.5000000000000000e+01 0.0000000000000000e+00
ITEM: ATOMS id element xu yu zu vx vy vz fx fy fz
1 C 7.503914377090883 7.622654901095967 7.488976346684300 0.000 0.000 0.000 -0.002 0.002 -0.003
2 H 7.439243555574501 7.413391191696117 8.554936954752785 0.000 0.000 0.000 0.001 -0.001 -0.002
3 H 7.054258763983541 6.958648595328708 6.753198163634478 0.000 0.000 0.000 0.004 0.002 0.004
4 F 8.749888627850964 8.000715722071279 7.127255063851719 0.000 0.000 0.000 -0.003 -0.003 0.001
