ITEM: TIME
0
ITEM: TIMESTEP
0
ITEM: NUMBER OF ATOMS
4
ITEM: BOX BOUNDS xy xz yz ff ff ff
0.0000000000000000e+00 1.5000000000000000e+01 0.0000000000000000e+00
0.0000000000000000e+00 1.5000000000000000e+01 0.0000000000000000e+00
0.0000000000000000e+00 1.5000000000000000e+01 0.0000000000000000e+00
ITEM: ATOMS id element xu yu zu vx vy vz fx fy fz
1 C 7.500000000000000 7.500000000000000 7.500000000000000 0.000 0.000 0.000 0.503 -1.529 1.471
2 H 7.500000000000000 7.500000000000000 8.621602616355000 0.000 0.000 0.000 0.215 0.927 -0.880
3 F 6.961156133444000 6.281102470868000 7.297536799719000 0.000 0.000 0.000 -0.858 -0.142 -0.610
4 F 8.778171938547001 7.361412901480000 7.060149509223000 0.000 0.000 0.000 0.141 0.744 0.019
ITEM: TIME
0.001
ITEM: TIMESTEP
1
ITEM: NUMBER OF ATOMS
4
ITEM: BOX BOUNDS xy xz yz ff ff ff
0.0000000000000000e+00 1.5000000000000000e+01 0.0000000000000000e+00
0.0000000000000000e+00 1.5000000000000000e+01 0.0000000000000000e+00
0.0000000000000000e+00 1.5000000000000000e+01 0.0000000000000000e+00
ITEM: ATOMS id element xu yu zu vx vy vz fx fy fz
1 C 7.515416075280373 7.453160929760945 7.545066082247485 0.000 0.000 0.000 0.360 -0.938 -0.815
2 H 7.506577000347234 7.528391756894433 8.594649656940053 0.000 0.000 0.000 0.256 0.508 0.789
3 F 6.934849048956581 6.276760770486428 7.278848365019432 0.000 0.000 0.000 -0.300 0.079 -0.257
4 F 8.782485949233308 7.384201915206194 7.060724817437035 0.000 0.000 0.000 -0.316 0.351 0.284
ITEM: TIME
0.002
ITEM: TIMESTEP
2
ITEM: NUMBER OF ATOMS
4
ITEM: BOX BOUNDS xy xz yz ff ff ff
0.0000000000000000e+00 1.5000000000000000e+01 0.0000000000000000e+00
0.0000000000000000e+00 1.5000000000000000e+01 0.0000000000000000e+00
0.0000000000000000e+00 1.5000000000000000e+01 0.0000000000000000e+00
ITEM: ATOMS id element xu yu zu vx vy vz fx fy fz
1 C 7.527219615231843 7.420987528837508 7.535203911217373 0.000 0.000 0.000 -0.021 0.067 0.642
2 H 7.514050959203388 7.546459150084246 8.607709549684829 0.000 0.000 0.000 0.147 0.265 -0.261
3 F 6.922167393945577 6.277722958002273 7.268790956514454 0.000 0.000 0.000 -0.151 -0.329 -0.355
4 F 8.775890105822050 7.397345735423975 7.067584503456626 0.000 0.000 0.000 0.025 -0.004 -0.026
ITEM: TIME
0.003
ITEM: TIMESTEP
3
ITEM: NUMBER OF ATOMS
4
ITEM: BOX BOUNDS xy xz yz ff ff ff
0.0000000000000000e+00 1.5000000000000000e+01 0.0000000000000000e+00
0.0000000000000000e+00 1.5000000000000000e+01 0.0000000000000000e+00
0.0000000000000000e+00 1.5000000000000000e+01 0.0000000000000000e+00
ITEM: ATOMS id element xu yu zu vx vy vz fx fy fz
1 C 7.534940307989872 7.400326521330764 7.552958836582417 0.000 0.000 0.000 -0.172 0.064 0.006
2 H 7.525163941672506 7.569824257584921 8.607046611689224 0.000 0.000 0.000 0.020 0.046 0.124
3 F 6.907151283866390 6.265673558901036 7.247731742971987 0.000 0.000 0.000 0.204 0.050 -0.078
4 F 8.772072536906384 7.406691033953222 7.071551725603895 0.000 0.000 0.000 -0.052 -0.159 -0.052
ITEM: TIME
0.004
ITEM: TIMESTEP
4
ITEM: NUMBER OF ATOMS
4
ITEM: BOX BOUNDS xy xz yz ff ff ff
0.0000000000000000e+00 1.5000000000000000e+01 0.0000000000000000e+00
0.0000000000000000e+00 1.5000000000000000e+01 0.0000000000000000e+00
0.0000000000000000e+00 1.5000000000000000e+01 0.0000000000000000e+00
ITEM: ATOMS id element xu yu zu vx vy vz fx fy fz
1 C 7.528032336490403 7.398474064793946 7.557671682741677 0.000 0.000 0.000 0.111 0.144 -0.096
2 H 7.528934908728118 7.577971763052656 8.613275241940400 0.000 0.000 0.000 -0.055 -0.038 0.099
3 F 6.913900256406995 6.265230684912137 7.238481614070539 0.000 0.000 0.000 0.016 -0.056 0.014
4 F 8.768460563274983 7.400838852735824 7.069860372496162 0.000 0.000 0.000 -0.072 -0.050 -0.016
ITEM: TIME
0.005
ITEM: TIMESTEP
5
ITEM: NUMBER OF ATOMS
4
ITEM: BOX BOUNDS xy xz yz ff ff ff
0.0000000000000000e+00 1.5000000000000000e+01 0.0000000000000000e+00
0.0000000000000000e+00 1.5000000000000000e+01 0.0000000000000000e+00
0.0000000000000000e+00 1.5000000000000000e+01 0.0000000000000000e+00
ITEM: ATOMS id element xu yu zu vx vy vz fx fy fz
1 C 7.529493425507382 7.402031732214033 7.556109575446184 0.000 0.000 0.000 -0.030 0.052 0.060
2 H 7.528284404639938 7.578811588652965 8.617449572968466 0.000 0.000 0.000 -0.041 -0.045 -0.045
3 F 6.915910535726399 6.263584767120671 7.236710726113570 0.000 0.000 0.000 0.008 0.004 0.032
4 F 8.765639696095082 7.398087274403125 7.069019033773968 0.000 0.000 0.000 0.062 -0.011 -0.046
ITEM: TIME
0.006
ITEM: TIMESTEP
6
ITEM: NUMBER OF ATOMS
4
ITEM: BOX BOUNDS xy xz yz ff ff ff
0.0000000000000000e+00 1.5000000000000000e+01 0.0000000000000000e+00
0.0000000000000000e+00 1.5000000000000000e+01 0.0000000000000000e+00
0.0000000000000000e+00 1.5000000000000000e+01 0.0000000000000000e+00
ITEM: ATOMS id element xu yu zu vx vy vz fx fy fz
1 C 7.529220975704805 7.404622738404341 7.557127941080241 0.000 0.000 0.000 -0.017 -0.039 -0.047
2 H 7.526997422242188 7.577923045747218 8.617709522477979 0.000 0.000 0.000 -0.021 -0.028 0.007
3 F 6.916819978545990 6.263131721871878 7.236922933162737 0.000 0.000 0.000 0.010 0.053 0.048
4 F 8.766289683683169 7.396837861527103 7.067528513678926 0.000 0.000 0.000 0.029 0.014 -0.008
ITEM: TIME
0.007
ITEM: TIMESTEP
7
ITEM: NUMBER OF ATOMS
4
ITEM: BOX BOUNDS xy xz yz ff ff ff
0.0000000000000000e+00 1.5000000000000000e+01 0.0000000000000000e+00
0.0000000000000000e+00 1.5000000000000000e+01 0.0000000000000000e+00
0.0000000000000000e+00 1.5000000000000000e+01 0.0000000000000000e+00
ITEM: ATOMS id element xu yu zu vx vy vz fx fy fz
1 C 7.528529086156492 7.405005960154765 7.556292433496191 0.000 0.000 0.000 0.032 -0.006 -0.010
2 H 7.525562467176171 7.576511998522549 8.618084312658677 0.000 0.000 0.000 -0.009 -0.018 -0.023
3 F 6.917670399771667 6.264485607985396 7.238538659979802 0.000 0.000 0.000 -0.015 0.008 0.023
4 F 8.767566106893868 7.396511797632771 7.066373507370990 0.000 0.000 0.000 -0.007 0.017 0.010
ITEM: TIME
0.008
ITEM: TIMESTEP
8
ITEM: NUMBER OF ATOMS
4
ITEM: BOX BOUNDS xy xz yz ff ff ff
0.0000000000000000e+00 1.5000000000000000e+01 0.0000000000000000e+00
0.0000000000000000e+00 1.5000000000000000e+01 0.0000000000000000e+00
0.0000000000000000e+00 1.5000000000000000e+01 0.0000000000000000e+00
ITEM: ATOMS id element xu yu zu vx vy vz fx fy fz
1 C 7.529674440634236 7.404813738210299 7.555777886391762 0.000 0.000 0.000 -0.013 0.001 0.013
2 H 7.525007095572116 7.575589856419789 8.617223285157580 0.000 0.000 0.000 0.001 -0.008 -0.019
3 F 6.917190603418698 6.264988647293299 7.239668573903963 0.000 0.000 0.000 -0.008 0.000 0.008
4 F 8.767455920347597 7.397123116027855 7.066619174375162 0.000 0.000 0.000 0.019 0.007 -0.001
ITEM: TIME
0.009000000000000001
ITEM: TIMESTEP
9
ITEM: NUMBER OF ATOMS
4
ITEM: BOX BOUNDS xy xz yz ff ff ff
0.0000000000000000e+00 1.5000000000000000e+01 0.0000000000000000e+00
0.0000000000000000e+00 1.5000000000000000e+01 0.0000000000000000e+00
0.0000000000000000e+00 1.5000000000000000e+01 0.0000000000000000e+00
ITEM: ATOMS id element xu yu zu vx vy vz fx fy fz
1 C 7.529592004636473 7.404796617210505 7.555970154054842 0.000 0.000 0.000 -0.002 -0.003 -0.015
2 H 7.524935093230249 7.575268160746962 8.616668585557118 0.000 0.000 0.000 0.002 -0.004 0.003
3 F 6.916948256454486 6.265075112855371 7.240017224747807 0.000 0.000 0.000 -0.003 0.003 0.007
4 F 8.767852707556088 7.397375465479032 7.066632957760871 0.000 0.000 0.000 0.003 0.004 0.005
ITEM: TIME
0.01
ITEM: TIMESTEP
10
ITEM: NUMBER OF ATOMS
4
ITEM: BOX BOUNDS xy xz yz ff ff ff
0.0000000000000000e+00 1.5000000000000000e+01 0.0000000000000000e+00
0.0000000000000000e+00 1.5000000000000000e+01 0.0000000000000000e+00
0.0000000000000000e+00 1.5000000000000000e+01 0.0000000000000000e+00
ITEM: ATOMS id element xu yu zu vx vy vz fx fy fz
1 C 7.529489230552179 7.404706463495267 7.555620544285633 0.000 0.000 0.000 0.002 0.007 0.001
2 H 7.524969054239342 7.575011308574907 8.616523222605940 0.000 0.000 0.000 0.001 -0.003 -0.005
3 F 6.916769962244874 6.265195977790507 7.240364163092869 0.000 0.000 0.000 -0.000 -0.003 0.001
4 F 8.768099819995786 7.397601608371711 7.066780991330234 0.000 0.000 0.000 -0.003 -0.001 0.003
ITEM: TIME
0.011
ITEM: TIMESTEP
11
ITEM: NUMBER OF ATOMS
4
ITEM: BOX BOUNDS xy xz yz ff ff ff
0.0000000000000000e+00 1.5000000000000000e+01 0.0000000000000000e+00
0.0000000000000000e+00 1.5000000000000000e+01 0.0000000000000000e+00
0.0000000000000000e+00 1.5000000000000000e+01 0.0000000000000000e+00
ITEM: ATOMS id element xu yu zu vx vy vz fx fy fz
1 C 7.529511048690906 7.404951942901752 7.555436952354606 0.000 0.000 0.000 -0.004 0.001 -0.000
2 H 7.525049862146315 7.574699432519727 8.616203792122866 0.000 0.000 0.000 0.002 -0.000 -0.000
3 F 6.916644117885178 6.265156361506091 7.240639886910590 0.000 0.000 0.000 0.003 0.001 -0.000
4 F 8.768123041673707 7.397707618853026 7.067008293118791 0.000 0.000 0.000 -0.001 -0.002 0.001
