# Converted from POSCAR to lammps format

4 atoms
5 atom types

0.000000  15.000000000000   xlo xhi
0.000000  15.000000000000   ylo yhi
0.000000  15.000000000000   zlo zhi

0.000000000000  0.000000000000  0.000000000000   xy xz yz

Atoms

   1  3     7.500000000000 7.500000000000 7.500000000000
   2  4     7.500000000000 7.500000000000 8.621602616355
   3  5     6.961156133444 6.281102470868 7.297536799719
   4  5     8.778171938547 7.361412901480 7.060149509223
