(written by ASE)

3 atoms
5 atom types

0.0                      20  xlo xhi
0.0                      20  ylo yhi
0.0                     200  zlo zhi

Atoms # atomic

     1   1      5.0920776855814811      12.300598462151067      30.149637784578747
     2   1       1.670533908899491      10.510354188697828      30.460042908845082
     3   5      4.7570904232125493      10.879686687297232      33.674153737462198
