LAMMPS data file via write_data, version 2 Aug 2023, timestep = 77000, units = metal

3573 atoms
5 atom types

0 30 xlo xhi
0 30 ylo yhi
0 60 zlo zhi
0 0 0 xy xz yz

Masses

1 28.0855
2 15.999
3 12.011
4 1.00784
5 18.998

Atoms # atomic

1 1 0.846454992347 2.597701523579 3.343828481292 0 0 0
3308 2 2.337103900931129 2.4551080801704024 4.018896844365886 1 0 1
3252 2 0.8147806974188208 1.9450799755893475 1.8313865555587738 0 0 1
3304 1 1.1127097737250007 1.4608935299545434 0.24602774512260597 1 0 1
360 2 4.878048026337463 2.8372606126994384 3.8649673412948253 0 0 0
3268 2 0.38420070338494383 4.165587524921516 3.030506521114181 0 0 1
11 1 3.7077797156965007 2.426965103374462 4.90321766652024 0 0 0
3324 2 2.5575851586496974 0.6622085075121573 0.2223519517223952 0 0 1
3539 2 5.645669388788924 0.49004331169523274 3.4143335097907848 0 1 1
65 1 6.206355019928803 1.984297190574141 3.5682466930138657 0 0 0
58 2 6.836667883208973 2.6102861920270746 2.239273418826496 0 0 0
691 2 9.3821629878247 1.8392057724210256 2.054176425053683 0 0 0
54 1 8.076280637651866 2.4368325644431277 1.27400759062679 0 0 0
968 2 7.415674232963563 2.0369340409384518 4.697960309856725 0 0 0
14 2 8.167690002718297 3.9681531425701384 0.639222105326327 0 0 0
162 2 5.749379091162549 4.890559407819647 0.8040333857266105 0 0 0
17 2 9.686706378532584 4.779972950303605 3.3919202983009806 0 0 0
562 1 10.154639229754848 4.108663956568903 4.818880966749419 0 1 0
400 2 10.541147282133004 2.5464442330758588 4.465075485977456 0 0 0
3267 1 10.677653178798055 1.7007529299013537 3.0904367864988243 0 0 1
677 1 13.249865722087698 2.2144974371334376 1.4852467537408858 0 0 0
56 2 13.792324702111653 3.723411853995336 1.141707671604663 0 0 0
366 2 11.801379180541582 2.3994360324629573 2.221531758779732 0 0 0
19 2 14.10716147305956 1.3121011870248023 2.5599318469100907 0 0 0
679 2 13.011678621604522 4.549496241901802 3.5729468870607284 0 0 0
18 2 10.974731497893968 0.146674455939766 3.4531931525147703 0 0 0
3544 2 13.089630869134224 1.2399130874865705 0.22751129136158585 0 1 1
153 1 0.45341174873165274 7.969332747858694 1.2541567569783223 0 0 0
53 1 4.234061741473771 5.399096566484348 0.9642286034334991 0 0 0
398 2 2.0233702443251724 5.830562961561564 4.321220738058215 0 0 0
43 2 3.9786368116214765 5.743990341908251 2.4967469864886103 1 0 0
355 2 1.6969162720444237 8.968512521624051 1.6601123205143402 0 0 0
603 1 3.536449940970347 6.327420700257573 3.928831611774556 0 0 0
394 2 3.464628192237517 8.014290454324545 3.927774455455273 0 0 0
308 2 4.8103678954036075 5.915766451478558 4.805955853259945 0 0 0
109 1 3.029866813806588 9.687811918459332 1.073363579744367 0 0 0
52 1 0.5738332604841891 5.705263052558231 3.4892328803695487 0 0 0
3430 2 4.446386201709542 9.395739975588139 1.9138052152703142 0 0 1
3573 2 0.5051631345706029 6.631400218090562 2.1670207173201157 1 1 1
3322 2 3.908438773586207 6.685334143443507 0.15532910574692588 0 0 1
117 1 7.296663605225985 5.340112882372397 0.8595243111177696 0 0 0
3316 2 7.69436391825305 6.02622647618279 2.3458361193447677 0 0 1
75 1 9.115794709547133 6.267678316606167 3.014869974720649 0 0 0
412 2 9.043352270898296 7.128241859344489 4.383241008639439 0 0 0
161 2 6.778108817236122 9.062128236409956 0.5855814418334079 0 0 0
408 1 6.025664260651175 9.8978476649541 1.7718618683386507 0 0 0
402 2 10.075877502197695 6.744605036170514 1.782179122556526 0 0 0
107 2 6.741187972749622 9.819784973806629 3.2966318845594342 0 0 0
326 1 13.642999223374883 5.002841540289156 2.1623466768224606 0 0 0
451 1 2.6332839632814595 14.948122162365491 2.8207877766593157 0 0 0
399 2 14.31750536244016 8.379841488595549 2.885037251910073 0 0 0
411 2 11.838654243294645 8.664991610036072 1.7492102279835542 0 0 0
59 1 11.45564639659858 7.169186405403001 1.096636953367376 0 0 0
989 2 12.701134155322992 6.073689958924814 1.4433600613512596 0 0 0
121 1 13.907800106796484 9.556270415613632 3.963163685349298 0 0 0
119 2 13.264004469947848 8.916131482681292 5.292686577508014 0 0 0
98 2 0.4682498417613756 12.433149383908246 0.6542109715476957 0 0 0
3422 2 2.2326895524817596 13.579870050564518 2.0264067843210474 0 0 1
3413 1 2.0978541837995985 12.68731408157867 0.6343813035301185 0 0 1
172 2 2.7954959914474933 11.28508945006227 0.9530359421091493 0 0 0
101 2 4.140877262556346 14.833763266865008 3.635676949935252 0 0 0
365 2 14.952019940728757 11.74289456191691 0.7135002815984846 0 0 0
721 1 7.155300981928767 10.324171886337288 4.7701781044298395 0 0 0
124 2 6.894278297790216 13.962407572036751 0.9056652582344529 0 0 0
444 1 5.124600292729123 13.821626341726603 4.418229438367514 1 0 0
460 2 6.099636680492399 11.44989108032433 1.33400454342623 0 0 0
3435 2 8.44849525935302 12.283610845659053 2.139079755214419 0 0 1
174 1 6.904619898329591 12.755242445350225 1.8993832407425297 0 0 0
453 2 6.067641009647239 13.10239630041901 3.236825293908886 0 0 0
167 1 9.421257159173418 11.794693215947396 3.3857586739866687 0 0 0
606 2 8.320755276271854 11.444138528972804 4.501770425903244 0 0 0
157 1 11.56687748613701 10.162959365182855 2.3648987127714705 0 0 0
103 2 10.174048955192433 10.349460555719759 3.170092883902073 0 0 0
111 2 12.852543474584241 10.628810975099706 3.3292938865531996 0 0 0
3439 2 10.707067702068688 12.775134327267903 3.551657624680768 0 0 1
168 1 11.775191327816975 13.983601227300355 3.7558532051742977 0 0 0
181 2 12.632214553148144 14.077122430840948 2.404727600438271 0 0 0
3372 2 11.367556843302745 11.224351968513224 1.0912373418211438 0 0 1
3491 1 13.395154348449871 14.69891558339913 1.070621401252903 0 0 1
3438 2 14.821757845777931 12.600977413328012 5.500903793557877 0 0 1
357 2 10.788482789254678 11.422274847938397 7.079077111174563 0 0 0
567 2 14.835834974722916 1.428954215978257 6.736180699537554 0 1 0
3263 2 3.74606862169231 3.362173233207145 6.228349265420186 0 0 1
600 2 4.027606261632046 0.9489111536976367 5.568694919128064 0 0 0
304 1 4.954366951019609 4.026493248147782 7.154638910986529 0 0 0
855 2 4.67339656827742 3.394906595773167 8.706384385185196 0 1 0
307 2 5.0931218082038505 0.9457910243998575 7.961990746419215 0 0 0
346 2 0.14414569842291602 4.250262346073992 8.27959009970743 0 0 0
314 1 5.210513168626789 1.9627444386815083 9.222078492807762 0 0 0
264 2 7.969486136956973 4.2153229747964325 8.791991012676258 0 1 0
551 2 6.380943867414072 3.473979015012649 6.612607696561106 0 1 0
560 1 7.839888334461067 2.7336815787324635 6.126989319466327 0 1 0
358 2 8.255146597867547 1.9572359027485107 7.457011683580294 0 0 0
3557 2 8.872175885095253 3.965365770175699 5.855653222671614 0 1 1
565 1 8.079371462136974 2.620851674730126 8.972872216758448 0 1 0
62 2 6.768168169155068 1.9553776819012028 9.722853873029528 0 0 0
265 2 9.475243365692256 2.169929889275919 9.796389961488199 0 1 0
21 1 12.898499955900169 4.5197315224499715 5.188939129285591 0 0 0
258 2 11.312698652072973 4.919240757964129 5.527643268526259 0 1 0
317 2 13.27469867689032 3.1447955807315195 5.926743205859346 0 0 0
578 2 13.093083590066323 2.314053146000916 8.42088199197032 0 1 0
321 1 13.338178558187524 1.9313819128386307 6.92276399757007 0 0 0
637 2 12.350599168881832 0.7253532486844847 6.517260223032642 0 0 0
895 1 1.0448516532995489 5.295046454005946 9.228286619777277 0 0 0
352 1 3.631959460227406 8.673522178817967 5.400077289312413 0 0 0
648 2 2.031750106377709 6.181324789304267 8.281466493825947 1 0 0
47 2 2.6751622339676158 8.744849861000574 8.730314859151765 0 0 0
1006 1 1.9413197536551197 7.706095579918361 7.693585745308372 0 0 0
652 2 2.5498981288024716 7.715726949085556 6.210889801334517 0 0 0
353 2 5.034678927971847 5.638182609192312 7.424138263734976 0 0 0
463 2 5.064983204101568 8.182076136775818 6.102648342125848 0 0 0
356 1 3.8703972234757162 8.803745213938317 9.907765730380154 0 0 0
649 2 0.3917418627606693 8.159849146188112 7.465674357040406 0 0 0
870 2 0.25826536675730233 2.0028932365567997 9.421631620201973 0 1 0
669 2 7.773369421372519 9.102517880290536 5.672695532988336 0 0 0
354 1 5.542818832279658 6.568767424335293 6.144737701218305 0 0 0
661 1 8.67843426738708 5.64308738593142 9.250284161653079 0 0 0
671 1 8.339407761504882 7.630902391490148 5.784339919324039 0 0 0
347 2 7.190541145335601 6.472058908110264 6.034296413499617 0 0 0
116 2 9.387308047973397 7.9430477511101 7.02282067318433 0 0 0
720 2 7.447722867180398 6.760216868324262 9.216765484520037 0 0 0
605 2 9.93505931437038 6.041655583963637 8.345780682156565 0 0 0
329 2 13.482719435917549 5.364227646447187 8.441630704865556 0 0 0
693 2 13.806321141712653 5.690764445359109 5.847984613916257 0 0 0
685 2 10.842331049744631 8.293219676682787 9.352288552349302 0 0 0
173 2 13.109150487261479 9.834520381247952 7.56629022781174 0 0 0
413 1 10.541770144057377 7.491892771883094 8.01947205740431 0 0 0
630 2 14.623212544576846 7.58542875742638 7.3545012314759255 0 0 0
474 2 11.972412028529874 7.4473221108832295 7.238021625389163 0 0 0
415 1 13.250790714574691 8.408437890880109 6.854861786699686 0 0 0
627 1 14.45255266295081 5.952852322956239 7.315989588615804 0 0 0
159 2 0.23206555011815577 11.77821980164884 9.835915910069817 0 0 0
141 2 4.218105752191527 12.7041656451804 5.151604200509083 1 0 0
802 1 0.2824517588383406 14.301758141967772 8.003525194188029 0 0 0
666 2 4.715746557078097 10.14371921840778 9.480508531679138 0 0 0
703 2 3.32286440176829 10.276126674127859 5.459809183199377 0 0 0
448 2 1.5864933356588165 13.842293264698823 8.819147898764644 0 0 0
706 1 4.3286437318414475 11.709452649444293 9.224126418095848 0 0 0
746 1 4.416088738009037 11.341483483280111 6.039258979367659 1 0 0
385 2 4.2957409185673034 11.762746268907284 7.607350347383206 1 0 0
461 2 0.7503037050648396 14.962058808440199 6.65554840882137 0 0 0
940 2 5.47161616581934 12.77148108273035 9.776480624954157 0 0 0
454 2 5.996946647273598 10.987656700154245 5.7090512087788445 0 0 0
760 2 8.47070769010994 12.99598683786116 6.453995227579866 0 0 0
316 2 8.87200004305133 11.406288260245677 8.762982379971541 0 0 0
762 2 6.248365315928478 14.336521031138568 5.506537362255337 0 0 0
1218 1 9.577484559769982 12.422162633966934 7.516415214859473 0 0 0
801 1 7.8031276052041285 14.45526525912618 6.113965804497373 0 0 0
686 2 13.178878169062628 12.43709501182454 7.617928419373609 0 0 0
1015 2 12.01306332326721 10.847901675630345 9.575838180476202 0 0 0
221 2 10.207576705652297 13.73115000109853 8.2521102867156 0 0 0
118 1 13.677320802741896 13.387971160326567 6.300030288262916 0 0 0
165 2 12.521712529798531 13.72996025257892 5.209214692944551 0 0 0
723 1 12.179248379555316 11.15272995241368 7.91474079150491 0 0 0
417 2 14.291275374400366 14.706884395527348 7.063989361219971 0 0 0
487 2 4.942434907854387 7.587967675359803 9.8358699421752 0 0 0
6 1 4.873430681765072 0.03014622821993516 6.6461793536038964 0 0 0
3541 2 7.840784065933543 1.1982361556981762 0.11326469061809785 0 1 1
2 2 3.2576924269080973 4.185432291111854 0.30420266027194387 0 0 0
599 2 1.5833216085045347 3.7109865951974093 12.731856641865491 0 0 0
569 2 4.161819179382455 3.5334602119242167 11.713869859461163 0 1 0
306 2 1.2099109529505432 2.000566244777003 14.678496058670227 0 0 0
657 1 0.5823649160983259 0.9500746131154792 10.699393440332686 0 0 0
951 1 0.5289185386922524 2.6885393293368773 13.40806506388683 0 0 0
910 1 2.680710531993405 4.318063229797777 11.794182245124912 0 0 0
1160 2 4.265817262936617 1.389499927496783 10.432557136660204 0 1 0
909 1 4.908458276907806 4.938171906111963 12.268521141361354 0 0 0
555 2 1.9923193253780893 0.206954264444746 10.547415573411808 0 1 0
554 2 2.1385436831505205 4.726905540193099 10.260903435928446 0 1 0
950 2 2.2098256214629934 14.918701026577489 19.26454502281981 0 0 0
891 2 3.8465030116709213 0.017403854330830013 14.805131996094296 1 1 0
1280 2 5.551262977424746 2.133072228339758 14.732669603427336 1 0 0
975 2 5.736635454351176 4.547361762436741 13.58002858388167 0 0 0
1148 2 7.7737445688103355 3.2405621726218135 14.746840977858946 0 1 0
1159 1 6.17666155466247 3.6158361022183985 14.895751281963433 0 1 0
328 2 9.988732070556452 1.127196726207963 12.175204738776602 0 0 0
570 1 10.522555134054883 2.2061892281104685 11.057736215629355 0 1 0
31 2 10.88641118995913 3.619773759894313 11.798004403560437 0 0 0
3556 2 13.705521769012451 3.461855283367466 10.488722312186297 0 1 1
920 1 10.629482512576164 5.191912859412215 11.493195227966254 0 0 0
914 2 14.549380595303688 0.9727429923852849 10.217142380258327 0 0 0
1030 2 11.961522320824741 1.6145438361862507 10.636867453058063 0 0 0
1356 1 14.66645029012946 10.730977636970023 18.782017352766744 0 0 0
659 2 3.4072440483774225 5.720637984600569 12.352507863772816 0 0 0
667 1 1.883904051876053 8.944897894794844 12.402812734227375 0 0 0
674 2 2.780827640346249 8.573221630620456 13.67261836255258 0 0 0
658 2 3.0211331819269867 9.056434679480843 11.25502841194111 0 0 0
965 1 4.359595892395035 8.941229344614978 14.058837577845074 0 0 0
608 2 0.816554865677769 7.786814963345423 12.014450972361136 0 0 0
1411 2 14.84811249642622 11.473733607879442 15.783673596818344 0 0 0
662 2 9.218380895375107 5.341201284480731 10.739599338277737 0 0 0
673 2 5.431223793301016 7.876297779374456 13.401051395999724 0 0 0
856 2 5.897351311075077 5.623520583980809 11.092081124725805 0 1 0
908 2 7.092571978840234 8.174098037608783 11.511772655968299 0 0 0
722 1 7.110019324460545 8.073825352810559 13.270546655872883 0 0 0
1018 2 8.049044504087544 6.785941678930164 13.424322244235746 0 0 0
912 1 9.53470876159061 6.457881759698609 14.017178552611085 0 0 0
832 2 8.01360818381679 9.489575221650277 13.295749447076503 0 0 0
676 1 6.360830921393964 7.03094102420015 10.452861325547186 0 0 0
770 2 9.87525373076413 10.054400691513633 10.918962731636144 0 0 0
628 1 11.33807390471691 9.574560080376893 10.378253476380848 0 0 0
857 2 10.044520030894638 7.8630000253410355 14.726515391622284 0 1 0
681 2 14.685119505556207 6.003061914727659 10.65277154701103 0 0 0
916 2 11.960221242998738 5.6177043413570455 10.677505246135059 0 0 0
665 2 10.608975027164266 5.956062608370571 12.931219635329017 0 0 0
977 1 13.309541172739038 8.800763653515821 12.917488192761228 0 0 0
925 2 12.658012319473954 7.849348903789392 14.063245190995836 0 0 0
416 2 12.234886157007793 9.019804613818172 11.647620920354077 0 0 0
922 2 14.562572442513574 8.012059647414821 12.274366426090328 0 0 0
636 1 13.466484164907108 5.023591274065557 10.111440703266494 0 0 0
1298 1 1.5066429351141002 12.825326204901259 10.106850534399763 0 0 0
714 2 1.0182370881543714 10.343933635538543 12.488906900792768 0 0 0
1376 2 1.1440146190293674 12.694607989258346 13.836130099627534 1 0 0
1347 1 0.8038823877153933 14.131290471271612 13.07730651514554 0 0 0
705 2 0.946193077457003 13.596919908814806 11.484353063088944 0 0 0
663 2 4.61591634780898 10.483730747233595 13.47098921801156 0 0 0
644 1 0.3024448064867669 11.332917271794882 13.640106007466672 1 0 0
1241 2 0.08465447596768522 8.7876188923219 17.03349319165539 0 0 0
465 1 8.95701662474122 11.289564526638213 10.421330762417801 0 0 0
401 2 5.706021817647246 12.594006648714643 12.533459340881455 0 0 0
710 2 7.380747928042108 11.439439476960018 10.865079818007388 0 0 0
670 1 6.475373730733114 12.74767829274149 11.084166299236436 0 0 0
450 2 9.686974081688762 12.570709536772997 11.142072603275933 0 0 0
678 1 5.535410881971282 11.81040499990619 13.895801120567732 0 0 0
1007 1 8.415988590876077 10.702922143812671 14.279316045637152 0 0 0
713 2 6.979902121099573 11.486682583312739 14.531731213409444 0 0 0
501 2 7.255542240296889 14.221494928645129 10.955807852212148 0 0 0
777 2 9.49202327307941 11.678751849152466 13.56763405148925 0 0 0
883 2 0.15983731126475162 1.6735759729101793 12.145631846886547 1 1 0
858 2 10.122147430925121 14.213640984297152 13.107629067189048 0 0 0
735 2 14.033900674622059 10.102972522085478 13.543886102075243 0 0 0
1061 1 10.326141887360391 12.717609660637478 12.602231596629444 0 0 0
468 2 13.976049287520038 13.7051780159128 11.018539853248777 0 0 0
779 2 14.278255880800673 12.644322664193462 13.513402814122763 0 0 0
232 2 11.963656015756301 12.482580485548807 12.407282646422335 0 0 0
1053 1 13.24118786068209 13.474661255882026 12.53455828416574 0 0 0
1069 2 12.550507303705182 14.82034386951925 13.118390846277533 0 0 0
983 1 14.907055582424281 11.278990176660363 14.111620120065554 0 0 0
906 1 4.481090427989325 1.3102058691126484 15.61709589804937 0 0 0
1134 2 1.1891602030787647 0.9470198613085576 17.029187216892936 0 1 0
1247 2 1.6492989039015524 4.645136393949441 19.325919800654535 0 0 0
1154 1 1.7100031099514794 2.230506414354378 16.18301962765879 0 1 0
882 2 3.335666686648777 2.361237745512965 16.147079907482116 1 1 0
696 2 1.2213011189968748 3.665836851494814 16.891269269355455 1 0 0
1229 1 1.9025226087640816 4.984027883094097 17.68414464254012 1 0 0
1096 2 5.138002423500832 0.9468852659135493 17.06794145144195 0 1 0
974 1 9.095014175571384 3.7658950723513867 15.532704655632726 0 0 0
616 2 8.87909102234129 3.703546500413197 17.183043788426144 0 0 0
943 2 5.794780528959271 4.286039130236188 16.317520947442418 0 0 0
957 2 9.280659387206509 3.12827584180618 19.704893258833597 0 0 0
1140 1 10.041462800262863 3.6402793604527224 18.325862318028037 0 1 0
1093 2 10.386331586965477 2.835160026354315 15.187546878321188 0 1 0
971 2 14.993698566314166 4.256246566542453 17.34156157057661 0 0 0
611 2 12.803967896437674 3.426329815702025 15.747685355390761 0 0 0
1165 2 12.086831244148822 0.8022578704262441 15.73580800672117 0 1 0
962 1 14.442119697130472 3.679722886778457 15.921685039144206 0 0 0
1210 1 11.596665952171243 2.356067329650559 16.134447550036942 0 0 0
624 2 11.139540000950788 2.6032736201674442 17.68433374259067 0 0 0
1023 2 11.317625549961049 12.03844863258308 16.828475033102286 0 0 0
1243 2 3.4138008982878363 5.170611692387885 17.185662279735926 0 0 0
995 1 0.44792171913990564 7.611679757237341 18.095730024832203 1 0 0
717 1 3.0094427022526684 8.388190965889653 19.810819984195877 0 0 0
1635 2 1.031994273297504 6.324864220821962 17.335831684070733 1 0 0
1591 2 1.5660713213514648 8.08789572740677 19.23316569460927 0 0 0
963 2 4.435016122106357 8.793384618644545 15.72040591009545 0 0 0
905 2 3.627981667240586 9.786421372842705 19.27434896628942 0 0 0
1246 2 3.8002789553668745 7.023525645497527 19.522436605665114 0 0 0
1198 2 5.2995392830156085 5.075622036137008 18.878396774092497 0 0 0
610 1 5.00937369245705 5.381140761791205 17.291774241772348 0 0 0
632 2 9.47247960857172 5.282106264702497 15.126463182139533 0 0 0
418 2 7.061592766870272 8.223427119646702 15.09236015065358 0 0 0
668 2 5.543025431204419 6.844277470794432 16.891295184683692 0 0 0
622 2 7.846349072345452 9.380630479582253 19.524538737401425 0 0 0
954 1 5.902578779830874 8.284662241372166 16.222014326342794 0 0 0
1120 2 6.405265593875698 9.236790807263413 17.41351107900306 0 0 0
969 2 9.552455534634646 7.548681649996824 18.452060352399723 0 0 0
617 1 8.984427656935686 8.211225081529763 19.87277766447139 0 0 0
959 2 10.736960256467086 5.055128233456141 18.193225585422997 0 0 0
1319 2 14.824200917858379 9.500815866345405 17.745991285289833 0 0 0
1065 1 11.552282205487172 8.174331390531586 15.255874309956928 0 0 0
1255 2 13.890410784075124 5.651503957839563 19.238986684137203 0 0 0
1294 1 10.959733057243753 6.748500453134044 18.09780533933049 0 0 0
955 2 11.696445982379768 7.190137048655684 16.623379356480942 0 0 0
1204 2 11.89305481835288 7.202412421227049 19.42219711764735 0 0 0
972 2 11.813838865401781 9.756310620204445 15.654896947033201 0 0 0
718 2 4.5825530037438345 12.635454575843617 14.946064753018389 0 0 0
458 2 6.068053175092166 14.517299958989613 16.20555148404895 0 0 0
1335 2 1.1301287070334054 10.993278419240578 19.142002332500066 1 0 0
457 1 4.56933183722767 14.064111086777334 15.711117799787553 0 0 0
708 2 0.9457469260131597 13.251564345374865 17.752194485593066 0 0 0
462 2 3.272400497013318 14.167840253373322 16.752377667449775 0 0 0
945 1 2.4545016162974846 13.807496287570004 18.166500727384584 0 0 0
953 2 3.260440540019701 12.507966178523333 18.8178680249396 0 0 0
1293 1 2.736270123761997 11.16732533228149 19.54929314761466 0 0 0
946 1 0.08004336958925826 12.103769210245408 18.531094115864196 0 0 0
1025 1 10.608028743189482 10.511849288041136 16.486189832810922 0 0 0
682 1 7.051796355993198 10.277046185796753 18.398587993136182 0 0 0
1287 2 5.328111771293516 14.880408854869746 19.5622873996973 0 0 0
1048 2 9.232610382107053 10.392744147572614 15.681781173837777 0 0 0
1291 2 7.540303663913244 13.924656919706772 18.236773880676967 0 0 0
967 2 6.29086484499689 11.513512510900334 19.129459720655536 0 0 0
1013 1 7.699324886466075 12.45870485818681 18.843382621481105 0 0 0
680 2 8.053505609760906 11.343408333614208 17.602918338694028 0 0 0
1253 2 10.801923119232503 10.077471001561921 18.135869904110887 0 0 0
1304 2 13.189947904211147 11.431271546258511 18.7802421867588 0 0 0
1404 2 10.985873374196334 12.461827569536872 19.6734158663074 0 0 0
1312 1 11.601007752825979 11.595199374426008 18.41842238672203 0 0 0
896 2 0.12617500612335908 10.751432598808425 15.098302836352808 0 0 0
625 1 13.317172655699153 1.9963776772129695 10.0043889788953 0 0 0
1285 2 2.967173838481757 12.134300855477376 10.014016155270795 0 0 0
1743 2 1.869915427812254 1.9616736607815402 23.624203454835058 0 1 0
1446 1 1.4372525902463988 3.496264334199972 23.425762751695046 0 1 0
2008 2 2.834154437666888 4.296583374876802 24.045982908907995 0 1 0
1548 2 1.469248043198176 3.7724122293778466 21.78968216335373 0 0 0
1752 1 2.6253534837288974 0.8661027184226351 24.547513164235287 0 1 0
1245 1 2.0510472949047194 5.003621917273661 20.921708400523052 0 0 0
1235 2 3.711106672327425 4.8272014283243685 20.981117244953673 0 0 0
1669 1 12.025292572950885 13.731086790239054 25.606332622551434 0 0 0
1444 2 3.7233535654587553 0.1931512491704998 23.514207757562108 0 1 0
1231 2 5.075907286027416 1.172538002520776 21.448068939466896 1 0 0
2218 2 7.323055614471743 2.523206806074734 21.750661927385543 0 0 0
1457 1 8.790615189697272 3.1877470608154277 21.252504642090813 0 1 0
1504 1 6.703715979337673 0.9961149161855314 21.782161422600502 0 0 0
1145 2 8.5446007873387 4.679061068845051 21.81422463106696 0 1 0
1197 2 8.388010980001052 4.3744844225105135 24.572318720642286 0 0 0
1196 2 7.6349044271684345 0.31268960866577783 20.66458015746086 0 0 0
1399 2 10.024876030674243 2.2567227080325085 21.841169336819725 0 1 0
1458 1 11.531548209655297 2.4015061615523248 22.525843244075027 0 1 0
819 2 11.651198241732928 3.868622131082595 23.383060959127775 0 1 0
1503 2 12.85674994163312 2.346058793597013 21.586638844805393 0 0 0
1141 2 11.508498282908274 1.1059995785328254 23.488676480561256 0 1 0
1266 1 14.447805664368788 2.093834858926701 21.292393482695374 0 0 0
921 2 13.771079255695605 1.1609481831098454 24.320728032613584 0 0 0
1471 1 12.755065529568167 0.052338940833629825 23.781317677355833 0 1 0
1712 2 11.500679282213431 12.754570965969238 26.770626476259107 0 0 0
1499 1 2.6094784653115477 5.78580994959316 24.60952079975837 0 0 0
1239 2 1.4067665233060105 6.356535746734987 21.636731883733503 0 0 0
1553 2 1.3739107696820057 8.622302681164001 23.57352470529368 0 0 0
952 2 2.898093858296943 8.49051105180065 21.441438478685473 0 0 0
1292 1 2.1484176924695793 7.59575848038369 22.59059258213071 0 0 0
1456 2 3.29894927664495 6.829737170693508 23.568035572771983 0 1 0
1242 1 1.6054013666397349 9.425468316282274 25.003728314611486 0 0 0
1341 2 7.657828490366141 14.55316719313757 24.402644825971297 0 0 0
2145 2 5.466740847713378 9.317263909605428 24.771540419832338 0 0 0
1810 1 8.644788171902595 5.386385449777908 23.265761245439847 0 0 0
964 2 5.820994210724478 6.380009532955874 21.184595586357705 0 0 0
1256 2 7.475036060420755 6.572458021946521 23.34062259354675 0 0 0
1554 2 6.135788388727616 8.614464124562257 22.260112278098447 0 0 0
958 1 6.898685990642557 7.207210202907775 21.93422241802654 0 0 0
1259 2 9.21286024500739 9.262756342077461 23.200368717161375 0 0 0
1964 2 8.19324733766411 7.303778897514992 20.890459629645196 0 0 0
1605 1 5.852873803100018 9.864790892079304 23.27808513545796 0 0 0
675 1 14.925873639236737 9.005587371854732 21.371482613541254 0 0 0
1199 2 10.075987896464058 6.034626065493966 23.149453442629632 0 0 0
1606 1 13.097506971206352 6.589019658995339 20.320457611277362 0 0 0
1203 1 11.605985282901841 5.4828619028411625 23.047217109829635 0 0 0
1873 2 12.358496250964578 5.779235634374499 21.55839331463785 0 0 0
1608 2 11.553951324794802 8.311359337692629 22.980522929003563 0 0 0
1021 2 14.193716222857006 9.223357315260815 22.787693921113384 0 0 0
1260 2 12.29372600761062 6.245661375992402 24.31666423199131 0 0 0
1014 2 10.094173405600172 8.950169212875622 20.82214764974987 0 0 0
1307 1 10.518869087546827 9.394796450184757 22.30390359892336 0 0 0
1826 1 11.860267553800286 7.802843819595281 24.539714120457212 0 0 0
1020 2 14.172764690458486 7.785649225984529 20.667968854511447 0 0 0
966 2 4.523177655050928 10.856033099265519 23.005602738222134 0 0 0
1009 1 3.797481807059574 12.088536176643986 22.326410981879004 0 0 0
1060 2 2.993910802180067 13.13542159193524 23.223654251331503 0 0 0
1603 1 1.7836196766345007 14.249199520554923 23.34518869822311 0 0 0
1360 2 2.88062691826025 11.434353955046705 21.123379654198644 0 0 0
1295 2 1.1417187631025878 11.012376117864319 24.65630334825788 0 0 0
1596 2 0.6663113972158737 13.496209328849586 24.16374701202501 0 0 0
1300 1 0.08319006771602344 12.204333399092569 24.871990168277122 0 0 0
1297 2 4.930137758649506 13.013571019216187 21.476179558774103 0 0 0
1401 2 1.4703056162431936 14.874034400549885 21.839346466974995 0 0 0
1258 1 8.447563705278771 10.41509078555611 24.196992953701336 0 0 0
1922 2 7.071944932298802 10.881965195593407 23.506505168360565 0 0 0
1919 2 9.353468162815266 11.70461209359793 24.348459509869322 0 0 0
1612 1 5.332185390445688 14.535433114648368 21.198184681261182 0 0 0
1302 1 9.923607182686526 13.208431528442443 20.630106998268673 0 0 0
1004 2 6.784916598018243 14.918119128493853 21.88303003522571 0 0 0
1008 2 9.924429725967295 13.2484670151656 22.23809320194709 0 0 0
1602 1 10.52066252593522 12.194750661283235 23.3446424288749 0 0 0
1355 2 11.146738779988848 10.942077664430666 22.479905509879863 0 0 0
1958 2 11.595939768820962 13.043952499041112 24.218151119985546 0 0 0
1568 2 14.268437031721414 10.463701568222055 25.358507437412616 0 0 0
1194 2 0.8348301229222002 2.0310415669950337 27.25804390637183 0 0 0
1729 2 2.9952896518555567 1.5164704757852114 28.512906675851188 1 1 0
1497 2 2.9371549208353627 3.842802358213709 27.51228209718723 0 0 0
1788 2 3.1576974035410257 1.640862195783537 25.8896020330044 1 1 0
1501 1 2.4321221539248894 2.2713239362006825 27.19242964269165 0 0 0
2663 2 14.159008033988334 7.457198409392051 29.764293913774143 0 1 0
2099 2 6.094962118166799 0.1481446519627801 29.61942202461957 0 0 0
2375 1 7.96443469576357 3.8088629700662886 28.652943090734258 0 1 0
1814 2 8.79975170338182 1.7925627198768117 25.857134504696962 0 0 0
1257 1 8.89182420634154 3.4799848439647234 25.877743095786474 0 0 0
1511 2 7.86681655301558 4.033428293097659 27.030772200795745 0 0 0
1823 2 7.313061542079202 2.3602699769069044 29.05405151125718 0 0 0
2089 2 9.411759088756765 3.7691707225752387 29.288415406902413 0 0 0
2046 1 8.862392576840959 0.10143575255076273 26.019737900236642 0 1 0
1305 1 14.949818990969485 10.144045613141571 23.929400014873313 0 0 0
1813 2 10.422881878459608 3.7593580451965436 26.123559362584157 0 0 0
1827 1 14.477755654709489 4.153173907573688 26.409178296096893 0 0 0
2109 2 12.927560754183883 3.91303825468173 26.308892275866448 0 0 0
1808 2 11.877104529807754 3.844625954751985 28.589924481300397 0 0 0
1818 1 11.563736223375718 4.40951325969419 27.103611682129845 0 0 0
2364 1 10.89723268672539 3.6138615955434363 29.852271154470785 0 1 0
2159 2 14.861388145042207 1.5417988192545118 29.784481750955173 0 0 0
1767 2 1.028935626421664 6.087418628498503 24.993565072120827 0 1 0
1244 1 3.5100299490938482 5.340712146389447 27.60614956400707 0 0 0
1238 2 3.2750168563323983 6.138199448181597 26.1429630477155 0 0 0
1442 2 2.932717770951933 6.394844838679073 28.812914543738287 0 1 0
1547 2 3.1005135323131316 9.237860483462205 25.709223445758784 0 0 0
1190 2 0.7532228235603906 8.654894003938498 26.158980809202593 0 0 0
1862 1 4.5852625975567545 9.774032678479266 26.00034422578585 0 0 0
2504 2 5.078292803690579 5.284515847953254 28.025578381112165 0 0 0
1505 2 7.201402646458043 5.011156137519119 29.461790241381507 0 0 0
2088 2 5.3135843008839725 9.678562505769152 29.794897036681558 0 0 0
2151 2 5.415846511582505 9.202592551578002 27.31247865502053 0 0 0
1251 2 8.24157695940863 9.586251392786169 25.61498523070781 0 0 0
1856 2 6.527021894669372 7.547106086671649 28.848820024585685 0 0 0
2154 1 6.288741596867666 9.178839568295059 28.598067684075687 0 0 0
1506 2 9.27198793428979 7.98371078896242 27.56776143773915 0 0 0
1812 1 9.609731154429223 8.94870673384204 26.21018904191371 0 0 0
2146 1 6.030800716184309 6.058684834084887 29.18491108458261 0 0 0
2196 2 10.117317937187224 6.668456465128116 29.65597048529482 0 0 0
1316 2 10.393700840012844 7.986544546953725 25.247037947961424 0 0 0
1578 2 13.658822061861324 9.982320625792214 27.79958682736872 0 0 0
1663 1 12.525335904607845 9.778537863534783 28.85556967848124 0 0 0
2170 2 12.921828341859408 8.345089975247454 25.58647760223704 0 0 0
1569 1 10.556735580656822 7.288730094561112 28.246924797093392 0 0 0
1918 2 11.17225004958853 6.002001907669603 27.34901037772591 0 0 0
1564 2 11.719298694080067 8.391957502009609 28.562830827732814 0 0 0
1557 1 14.10522332330441 9.226116657221882 26.40847045693768 0 0 0
1249 2 0.019466303655765686 12.456206962122021 26.55921730098723 0 0 0
1805 2 2.9718478130078694 13.741411002922401 26.09117334011066 0 0 0
1604 2 4.4935414472159785 11.4267379119463 26.109715835217674 0 0 0
1283 2 1.203007008110523 13.593462614908251 28.99197516913423 0 0 0
1556 1 3.621827865426384 12.478488184026514 26.977376813882337 0 0 0
1901 1 0.9318729871797177 12.321855049866286 27.958344734794707 0 0 0