(written by ASE)

6293 atoms
5 atom types

0.0                      30  xlo xhi
0.0                      30  ylo yhi
0.0                     200  zlo zhi

Atoms # atomic

     1   1      13.317172655699153      1.9963776772129695      4.0043889788952924
     2   1      6.4753737307331143       12.74767829274149      5.0841662992364292
     3   1        8.95701662474122      11.289564526638213       4.421330762417794
     4   1      1.5066429351141002      12.825326204901259      4.1068505343997561
     5   2      14.743495278067307      8.2550179492639053      5.9988732077515863
     6   2      12.891148370887347      7.9720034325633735      7.9354965933669757
     7   2     0.75030370506483957      14.962058808440199       0.655548408821363
     8   1      13.466484164907108      5.0235912740655566      4.1114407032664868
     9   1      11.338073904716911      9.5745600803768927      4.3782534763808414
    10   1      6.3608309213939638      7.0309410242001498       4.452861325547179
    11   1      10.629482512576164      5.1919128594122146      5.4931952279662468
    12   1      10.522555134054883      2.2061892281104747      5.0577362156293475
    13   1      2.6807105319934048      4.3180632297977768      5.7941822451249045
    14   2      11.972412028529874      7.4473221108832295      1.2380216253891563
    15   1     0.58236491609832586     0.95007461311547925      4.6993934403326794
    16   1      4.8734306817650719    0.030146228219935161     0.64617935360388934
    17   1      12.179248379555316      11.152729952413679      1.9147407915049028
    18   1      13.677320802741896      13.387971160326567     0.30003028826290912
    19   1      9.5774845597699816      12.422162633966934      1.5164152148594656
    20   1      4.3286437318414475      11.709452649444293      3.2241264180958407
    21   2      4.2957409185673043      11.762746268907284      1.6073503473831989
    22   1     0.28245175883834062      14.301758141967772      2.0035251941880219
    23   1       14.45255266295081      5.9528523229562387      1.3159895886157971
    24   1      13.250790714574691      8.4084378908801085     0.85486178669967938
    25   1      10.541770144057377      7.4918927718830943      2.0194720574043021
    26   1      8.6784342673870807      5.6430873859314197       3.250284161653072
    27   1      3.8703972234757162       8.803745213938317       3.907765730380147
    28   1      1.9413197536551197      7.7060955799183608      1.6935857453083649
    29   1      1.0448516532995489      5.2950464540059459      3.2282866197772702
    30   1      13.338178558187524      1.9313819128386307     0.92276399757006278
    31   1      8.0793714621369741       2.620851674730126      2.9728722167584412
    32   1      5.2105131686267887      1.9627444386815083      3.2220784928077553
    33   1      4.9543669510196091      4.0264932481477818       1.154638910986522
    34   1      0.5031521116246408      2.6861174411048445      7.3294618524445507
    35   1      4.9504609168214682      4.9344657347454097      6.2578159530813373
    36   2      12.747940051076052      14.915268032617618      7.2317154845250533
    37   1      1.8980009695561704      8.9671339561878423      6.3917340176964075
    38   1      4.3534073718610502      9.3795210681455181        8.19856681204263
    39   1      7.0964443849101926       8.204994692278051      7.3431448304025855
    40   1       9.496872320033658      6.4603114860827207       8.114127844778384
    41   1      13.460367602010741      8.8993541065228357      6.7339179681611165
    42   1     0.81915955255926631      14.011657035509138      7.0613720034893159
    43   1       14.91186561591628      11.488025271626345      7.9619063065370916
    44   1      5.7593895352423106      12.138084062944012      7.9881283642172658
    45   1      8.6479671271414951      10.835622771921495      8.3428058533207281
    46   1      10.519973401684831      12.649687312841367      6.4810830026742412
    47   1      13.262866163457041      13.542786653428564      6.4562313505127689
    48   2      1.5864933356588165      13.842293264698823       2.819147898764637
    49   2      2.9671738384817572      12.134300855477376       4.014016155270788
    50   2      13.976049287520038        13.7051780159128      5.0185398532487699
    51   2      0.2254250240862245       1.796123360029257      5.9974193661443342
    52   2      7.2555422402968892      14.221494928645129      4.9558078522121409
    53   2      9.6869740816887617      12.570709536772997      5.1420726032759259
    54   2      13.109150487261479      9.8345203812479518      1.5662902278117328
    55   2      12.089951876081258      12.501823388510251      5.9780893568319931
    56   2      14.372007877447427      12.921657169488299      7.4419511781128271
    57   2      13.958476944271007      10.351670235808346      7.3234193029314483
    58   2      10.249426239917353      14.144444241168427      7.0991891547701149
    59   2      9.8885039386468563       11.52302280097366      7.4852472831931127
    60   2      7.3300336103158346      11.784347025554736      8.3477018049979517
    61   2      5.6112794633237026      12.659723980308083      6.4506789380655665
    62   2      7.3807479280421084      11.439439476960018      4.8650798180073807
    63   2      4.6233376183283639      11.010770658381015      8.1921525535182376
    64   2      1.1644481262860784      12.596437043041362      7.8418029040967632
    65   2     0.97242098133255284      10.323220567506906      6.4138553117507211
    66   2      1.5788963504030336      3.7994284546558896      6.8535717749299119
    67   2      1.0679681802055856        1.84327217126106      8.5896999443619109
    68   2      4.7157465570780968       10.14371921840778      3.4805085316791313
    69   2     0.23206555011815577       11.77821980164884      3.8359159100698101
    70   2      5.6845836950759399      4.6172925535632068      7.7019667515017129
    71   2      14.623212544576846      7.5854287574263797      1.3545012314759184
    72   2      9.9252490739171346      1.0576472285476117      5.9992319972455697
    73   2      3.4733359759191282      5.6882008233851726       6.451514101007719
    74   2      2.7993681410437494      8.9688042939861745      7.7682701473793996
    75   2     0.94619307745700298      13.596919908814806      5.4843530630889372
    76   2      5.4755322133963116      8.6975596863392628      7.2452453780176933
    77   2        8.12490131485165      6.8790590424449487      7.3906980316318522
    78   2      8.1414187876554891       9.452751619745781      7.6794007913747784
    79   1     0.24643074200118165      11.236747477871857      7.5473601030176596
    80   2      10.559835179971715      5.9226415854810543      6.9514766264820258
    81   2      12.234886157007793       9.019804613818172      5.6476209203540702
    82   2      11.960221242998738      5.6177043413570455      4.6775052461350519
    83   2      14.685119505556207      6.0030619147276587      4.6527715470110227
    84   2      9.8752537307641308      10.054400691513633      4.9189627316361371
    85   2      7.0925719788402342      8.1740980376087826      5.5117726559682918
    86   2      5.8973513110750773      5.6235205839808131       5.092081124725798
    87   2      9.2183808953751072      5.3412012844807313      4.7395993382777295
    88   2     0.86846695658940165      7.7182848697996036      5.9920180786655202
    89   2      3.0211331819269867      9.0564346794808426      5.2550284119411028
    90   2      11.961522320824741      1.6145438361862507      4.6368674530580556
    91   2      14.549380595303688     0.97274299238528494      4.2171423802583199
    92   2      13.705521769012451      3.4618552833674698      4.4887223121862903
    93   2       10.88641118995913      3.6197737598943132      5.7980044035604301
    94   2      2.1385436831505205      4.7269055401930942       4.260903435928439
    95   2      1.9923193253780893     0.20695426444474663      4.5474155734118007
    96   2      4.2658172629366167      1.3894999274967788       4.432557136660197
    97   2       4.161819179382455      3.5334602119242149      5.7138698594611554
    98   2      4.9424349078543868      7.5879676753598027      3.8358699421751936
    99   2      14.291275374400366      14.706884395527348      1.0639893612199636
   100   2      10.207576705652297      13.731150001098531      2.2521102867155935
   101   2      12.013063323267209      10.847901675630345      3.5758381804761949
   102   2      13.178878169062628      12.437095011824541      1.6179284193736017
   103   2      8.8720000430513295      11.406288260245677      2.7629823799715343
   104   2      8.4707076901099398       12.99598683786116     0.45399522757985888
   105   2      5.4716161658193396       12.77148108273035      3.7764806249541505
   106   2      10.788482789254678      11.422274847938397      1.0790771111745556
   107   2      14.835834974722916      1.4289542159782549     0.73618069953754706
   108   2      3.7460686216923098       3.362173233207145      0.2283492654201851
   109   2      4.6733965682774201      3.3949065957731648      2.7063843851851885
   110   2      5.0931218082038505     0.94579102439985752      1.9619907464192077
   111   2     0.14414569842291602      4.2502623460739919      2.2795900997074234
   112   2      7.9694861369569727       4.215322974796436      2.7919910126762506
   113   2      6.3809438674140724      3.4739790150126524     0.61260769656109915
   114   2      8.2551465978675473      1.9572359027485107      1.4570116835802871
   115   2      6.7681681691550679      1.9553776819012028      3.7228538730295213
   116   2      9.4752433656922559      2.1699298892759202      3.7963899614881917
   117   2      13.093083590066323      2.3140531460009157      2.4208819919703135
   118   2      12.350599168881832      0.7253532486844847      0.5172602230326353
   119   2      2.0317501063777073      6.1813247893042673      2.2814664938259401
   120   2      2.6751622339676158      8.7448498610005743      2.7303148591517576
   121   2      2.5498981288024716       7.715726949085556     0.21088980133450974
   122   2      5.0346789279718474      5.6381826091923122      1.4241382637349691
   123   2      0.3917418627606693      8.1598491461881117      1.4656743570403989
   124   2     0.25826536675730233      2.0028932365568011      3.4216316202019663
   125   2      9.3873080479733968      7.9430477511101003      1.0228206731843228
   126   2      7.4477228671803983      6.7602168683242621      3.2167654845200304
   127   2      9.9350593143703794       6.041655583963637      2.3457806821565583
   128   2      13.482719435917549       5.364227646447187       2.441630704865549
   129   2      10.842331049744631      8.2932196766827868      3.3522885523492953
   130   2      5.2279678076418641      2.1661421241445828      8.6116210230849362
   131   2      12.575279661874449      3.4078177170835264      8.7550140128275853
   132   2     0.12106584982433889      10.351494109053149      8.8960794410500768
   133   1      5.9421604546140161      3.5847857782353638      8.9676905605929491
   134   2      10.340039805238298      7.6612216787335683      8.8498316325304884
   135   2      14.203044337880254    0.015767133175357963      8.6947361238998919
   136   2      5.4929598105960382      13.398713235091659      8.9274160741741646
   137   2      1.0798495377154875       14.67327347941348      14.747307845758922
   138   2      8.7939962547958537      6.9662499980964405       13.96940447655364
   139   1      4.4617770537885475      1.0176694255430401      9.5033863524661921
   140   2      14.829608570401772      11.605287125198586      9.5850779205160848
   141   2      10.090611707525539      2.9048626750879576      9.4356761782286167
   142   1     0.57740557218114996      7.4456937589215144       11.83118013406548
   143   2      7.9029322646700626      1.7578696650188734      16.218346940457266
   144   2      5.7599090530270081      10.928841943704938      16.049751957533815
   145   1      14.130263993580424      3.7913493347542095       9.075078442945788
   146   2      13.665311429785445      10.747314349947146      12.421398269806495
   147   2      6.1371808470442213      6.2441086067940468      14.864329542110411
   148   1      7.0972410953805563     0.31654254245893215      16.237242389576341
   149   1      4.8892277093773924      14.691845274880563      9.6699079127820653
   150   2      10.942524184252322      10.825111292258288      16.390880809480379
   151   2      6.7703103163785725      7.7391438386909082      9.1690597044333213
   152   1      1.5376769736211018      14.551053511524398      16.351150124845283
   153   2       11.67893337660135      9.8272305917862255      9.2811860621648119
   154   2      8.0141879247755377      6.7244643972760008      16.412668417820807
   155   2      7.5274121025647496      3.3798881289092026      9.2028132848912101
   156   2      11.878072072377918     0.94652329944171931      9.5812699494804097
   157   2      14.836747671772544      1.2286706881562937      14.222944576378088
   158   1      11.844418889884665      8.1977347044271944      9.1684188420065418
   159   2      5.8416152157860068      13.184064229761949      14.323734417668078
   160   2      9.1765681558837766       5.371464761450401      9.3039571856319494
   161   2      5.4572072497637585     0.48754732435956427      16.130821798964863
   162   2     0.90308168413488477     0.30415874199122434      10.768025111475232
   163   2      9.8531489009675362      1.1058151039849806      11.694977128390548
   164   2       9.203918848336702      12.216167336837158      13.109646960264415
   165   2      9.2992642183859751      10.780006231952575      9.8540080698104067
   166   2      14.577579481797148      10.771554819056702       15.79882256063522
   167   2      1.5000324767624373      13.410465906654505      11.639612734884363
   168   2      8.4572055252049338      4.1940664934558587      15.669975238433578
   169   2      12.556360067242247      7.6107290527493907      10.527926470373419
   170   2      11.712697698717266      12.171122062762224      13.644574554651239
   171   2      6.1678834203567297      8.6607883926201694      11.709275460955942
   172   2      4.8924829906165384      6.5643860480277132      10.792718812025459
   173   2      12.114579650763224      2.7350907694857693      11.335260543472803
   174   2     0.85604231518996798      5.8987513129406004      11.324282003245369
   175   2      1.0671518216797287      4.2474808931817432       13.43886218960246
   176   2      9.3614174805831354      2.4405517536113392      13.968628786508017
   177   2      1.9517495266096263      8.2036305370049281      12.310461876349226
   178   2      3.6417194823552541      10.085901827077828      13.455819845172446
   179   2      4.2701004165320153      7.5742764095299995      13.419398491908543
   180   2      4.9316444929699195         5.0239699770602      12.985332055351561
   181   2      8.6489522681167212      9.0412443642862499      12.404169782524516
   182   2      10.718002908467881      7.4594542574491136      12.389152737482778
   183   2      11.498273281194868      5.2913572186437321      11.049422243706838
   184   1       2.187013898068273      6.8462667003687203      15.722771847707637
   185   1      7.4874696048671776      7.1916913896700159      14.922835417183034
   186   1      10.839870580260543      9.1492021665451411      16.026020178710798
   187   1      5.2524753439679053      12.440253482425256      15.681897321000735
   188   1      9.0550671077215341      2.7045834048214137      15.534406034168729
   189   1      4.6947733880454576      6.1537513325865749      14.138448883639651
   190   1      10.298354769485984      12.920062006230776      14.082271561171018
   191   1      13.678121931336893      6.6909778924022483      14.528612241640682
   192   1      12.133943191708036      11.277706249429531      12.324945532199862
   193   1      7.5896600340695697      12.364619447418638      13.078804386303599
   194   1       7.115452614779251      9.3130718035182269      12.855501032487684
   195   1      0.6676667104184042       4.339205269887298      15.035882421813373
   196   1      3.1749381051928758      11.625601628398146      13.756468635630045
   197   1      3.0236784466808295      13.954016951286857      11.956899150654658
   198   1      9.7145450135086513      8.2380841105200613      13.374848345948068
   199   1      2.9990933390433536      8.5835322624532377      13.507764173279337
   200   1      9.7401102215549411      2.5547656269818138      12.401750430419888
   201   2      14.120679620105076      5.1077170353389967       10.09977550827136
   202   2      13.005681628833621      6.4818880754488895      13.039266438214888
   203   2      1.5591579285043762      11.468920805150397      13.499275738833608
   204   2      3.7690497139240211      12.712321943300571      12.688137228941656
   205   2      7.2019355003562229      13.445013323695147      11.948658750949043
   206   2      6.9199721904806628      8.6800553088950245      14.402164560885783
   207   2      3.0099849975536359      4.6524522715407759      11.394612827534228
   208   2      11.740535862658383      12.051978763677521      10.871665177708756
   209   2      11.300122010860555       3.170319321223602      12.429965858070318
   210   2      2.1728286282352447      8.2579022116203493      14.875030810023226
   211   2      5.3259463663685667      4.0596148163051797       10.41222977752262
   212   2      8.8388798830632247       3.641599826128211      11.515092346524883
   213   1      1.4979825181528932      1.7328798924528035      10.174437582030864
   214   1       1.467621430015345      4.4494290483554604       11.84141670331395
   215   2      1.7082168337941221      3.4456888629722684       15.95527327787655
   216   1      8.8890435687604779       3.900786339263755      9.8881100004365852
   217   1      11.619964716106479      2.5490305403149307      9.7572447982469122
   218   1      4.5570776804033937      5.0910133504754009      11.386254832901306
   219   1      5.6459442900743166      7.9369357700514103      10.344109124099194
   220   2     0.85144621458386693      5.9108271819894487      15.502403211691746
   221   1      11.976929203278459      6.6647657630925927      11.761892488900205
   222   1      10.850162521066009      10.702578383164102      10.394220553919917
   223   2      1.0045415627771608      3.0568124410338373      11.054367127288117
   224   2      6.8653660486874113      10.930068101191099      12.961736081104904
   225   2      11.059244592248378      10.081763467560075      11.920306921849068
   226   2      3.6493273425482111      12.211232776963056      15.253076847990435
   227   2      10.237206718075722      9.3612411729689775      14.444950734200077
   228   2      10.976782022284327      7.4507844084081958       15.58788150538229
   229   2      3.1216113754326695      1.6530848718950759      10.196738837813824
   230   2       12.87685325101625      5.8526149548199644      15.717156183591637
   231   2      10.384940814568186      14.493856597491639       13.72104547598607
   232   2      3.4907683099926379      5.9130624807176151      15.252909452257008
   233   2      13.970447415309325      8.2808838845195023      14.870039461689183
   234   1      0.6472167040956246      12.220469188815793      12.368244977168196
   235   2       9.858875352074703      12.970291992939163      15.663056848831042
   236   2       4.451250050968663      8.8864813541134602      9.7474250655611172
   237   2       5.424995136000728     0.46103862162432174      10.689102146625487
   238   2      7.2794020527391421      13.050048385647873      14.581090815800412
   239   2      3.5772430853580985      14.274284837824963      10.485701527337682
   240   2      14.678932359258491      2.4210749108456864      9.8143811583974756
   241   2      10.431021404251725      2.5090320817139187       16.40607095666256
   242   2      6.0679271248313258     0.23507003891262601      13.344954889466074
   243   2      7.1908465979294851       7.442275195138814      21.813934411179758
   244   2      5.2754605499581055      9.0307862629393085      20.959502429754348
   245   1      8.5129504181921138      14.040132498513358      23.634202207862991
   246   2      6.9366009164067917      9.1827318744723634      17.667188859413233
   247   2      1.6461369552078029      1.2139855686819112      17.325297828903565
   248   1      1.6451663647124164      10.196973589586893      22.654999032482284
   249   1     0.70423438792960602      7.4507011160205243      22.765520800804783
   250   2      8.7593412736442762      9.1454716364014725      19.500456384414047
   251   1      10.348018388629793      7.9221148797367889      22.847583625394293
   252   1      12.652840300307068      8.4131986053408685      18.244146924233203
   253   2       1.959562811069383       2.145106036606284      23.286121661811077
   254   1      11.570436571865656      2.7284666564941107      21.578618286072036
   255   2      3.0828945215673982      9.5715440597239478      22.187780280887708
   256   2      9.7525986140994601      9.1499127707443613      21.995471810957007
   257   2      7.9878992853985444      12.758288059548427      22.724862030110163
   258   1      7.0597330755319794      5.8439196489649081      21.371799872940695
   259   1      7.2987061368773416      12.291429668067801      21.327500808096033
   260   1       1.367308872054033      2.8365432521180942      17.439800176600617
   261   1      5.6084306738833085        10.0859761629531      17.444079377003685
   262   1      8.5950491111009697      3.8485928002113261      19.435995550178397
   263   2      11.231671801664572     0.92841980684315462      18.352064343052696
   264   2      7.6300551566934587      10.678414941398884      21.353135592327607
   265   2      9.9568363856306696      3.1790715501901752      18.926250025400375
   266   2      14.407459434842886      4.5918151718325495       19.92916399556724
   267   2      2.2903994487773818      7.3064889956909473      17.287029770706393
   268   2     0.95567496632331728      8.9175231138771167      23.447006310604909
   269   1      13.625033747651079       14.69607046621071      20.516495014047525
   270   2      8.5850465820259849      11.171468990168201       17.49763707953305
   271   2      8.0942289188092023      12.881535175221016      19.997914790742787
   272   2     0.75037128176360679      10.427136234839836      21.309923430719152
   273   2      11.771021043075397       2.643636912797982      23.202151084991275
   274   2      4.7028637636572661      6.9050408542267032      22.457283472837513
   275   1      9.7244874655899807      12.753634520952474      19.807468380014424
   276   2      8.0271109650697241      4.7258833446998549      18.208214753494406
   277   2      13.140707927743172      13.836338783031357      19.147459479833465
   278   2      6.4170363419510803      2.8421266822462177       23.63752975892158
   279   1     0.10328655951073384      12.107557351538997      17.438759175041582
   280   1      4.7298269863369296      5.3136492159917115      19.455904631208284
   281   2      14.794397732391042      11.902159282920296      23.542886598045708
   282   1      11.047422502661359      2.5121480135142016      17.903956326050938
   283   2       14.52046766253876      8.0466957440782085      23.494932174823543
   284   1      12.393024231094515      10.248501759763268      20.657947460905866
   285   1      3.7145994249797281      9.4823431464382129       20.69520106191198
   286   1      13.473145109406998      14.223635388624645       17.57356321870429
   287   1      9.0077727663107439      10.010457180475489      20.842942616329584
   288   1      3.0470173684467436      1.5729220991984534      22.222237853754244
   289   2      13.838117472779746      6.2044712191162095      21.641479297271523
   290   1     0.35668092423536046      14.243314447209361      21.850128923335149
   291   1      5.7430724083290423      8.1414539139096558      22.246991693751308
   292   2      10.978177389467589      4.2441673812010254      21.318858795087429
   293   1      3.5547153299262515      7.8144251889023204      18.178494903256606
   294   1      6.4604015917223476      14.969030146478225      16.955248137426942
   295   2      14.252017622957975      8.5027378477072162      18.630003072640264
   296   2      4.3956478876862333      9.0044096221019601      17.409283935161504
   297   2      9.0913722768234511      4.0594422769298202      23.199411851100866
   298   1      2.9939897335116705       14.62394469157147       18.67941746535444
   299   2     0.23440858219042021      11.281416219825902      18.847611024816505
   300   1      8.8730696381045817      1.2445920157960593      20.803820803647074
   301   2      3.8609636451673293      13.346424608009828      19.166275696062446
   302   2      4.4664642247281607      6.4359580735447199       18.28986880874351
   303   2      6.1651477372421262      5.7808444244032593      20.046867494562431
   304   1      8.4868309938273505      9.5675261323702134      17.934087602179638
   305   2      10.364075861877183      13.907764105606507      20.740904484441568
   306   2      2.3175750961133401      3.4086248129090122      18.638632393127292
   307   2      11.902570505505539       9.234361752967235      19.464896954706532
   308   2      1.3582550346498903      14.580390036669227      18.920437742090623
   309   2      10.309146061785983      12.854944439771478      18.269166304762486
   310   2      8.5899392324748174      5.0816560598520555      20.681634437287279
   311   2      0.4553514189199534       12.95313663708678      20.877509102747762
   312   2      10.473525993120804      1.6153553550788573       21.05341002764564
   313   1      9.7179624866417491      4.9463735654084111      22.008241625956785
   314   2      7.9745911949305466       2.561262477885081      20.255071793972455
   315   2      3.8310842108795113      1.2377803520574941      18.842025552181546
   316   2      3.4330329133283675      4.7016229441554245      23.084430294783797
   317   2      3.5714652462414156      5.4816761717637776      20.579056335602328
   318   2      9.8668636061199813      6.5213078484137155      22.215120434185394
   319   2      5.4840716896961261      11.226649012743158      18.621099006919319
   320   2      2.0569655932599495      6.8792212207866896      22.080584221336814
   321   2      5.6834123118922166      12.534655583890984      21.012935079214483
   322   2      6.8050784204421628      4.8095458348199696      22.516759460250263
   323   2      12.082169064850408      6.8780072603628337      18.109344058870917
   324   2      3.0766448793549626      8.4171469717342688      19.624162098085197
   325   1      3.4098231029612434      5.9895882196583781      22.099918380694209
   326   1      13.507609891580886      7.6439062622366958      22.277235564661755
   327   1      3.5625458973309421      2.7353657660305419      19.429542606004976
   328   2      13.776864383292462      8.9846096794137633      21.184310024819634
   329   1      13.562663333217616      3.3338548123174254      19.333792280826419
   330   2      4.4513755384904279      1.2852748181403804      22.975928261235421
   331   2      3.2492060243153831      2.6407900475490278      21.002440351737466
   332   2      12.915891679198001      2.5809819223185335      20.675960350985051
   333   2      4.7860898157220335      3.7396302199087996       19.05871134922636
   334   2      11.986366896361385      7.9682421721567449      22.705373089357693
   335   2      14.082372262556033      13.776384060846398      21.756920146241324
   336   2      12.349927133013521      3.4891946670073581      18.191731604403603
   337   2      1.6295981690043315      14.124865426345337      22.909445161811149
   338   2      10.086223122080446      11.259706466231689      20.463915266558388
   339   2      8.4324385189875652      0.8982965007722794      22.334696330744993
   340   2       3.540757771326597      11.011555475908812      20.183832656060247
   341   1      4.6813887857292196      12.081430517939314      19.765482149855206
   342   1      11.587059839973605      6.3769981808545273      16.617041440970226
   343   2      13.610581945594024      12.919174349669436      16.632479220674565
   344   2      5.7820479098788482       13.48848793443354      16.828429361458895
   345   2      1.3394151994607288      12.956618525548437      16.791513629589211
   346   1      8.7414029279799497      5.3151769068390902      16.802303861355909
   347   1      9.9220953312868527      11.939829294574157      16.922960705979893
   348   2      10.353957635268003      5.3760352218722876      17.027319529199424
   349   2      9.5773607249143087       8.804105001759174      17.061582470572425
   350   2      12.357986160775006      9.0551197102455543      16.805354298566122
   351   2      3.0157214908490304      14.871648659624709      17.012873388707195
   352   1      2.6944199163985472     0.25091658998988658      18.162664508177581
   353   2      14.493828564762575       2.289167872273433      18.488092669109491
   354   2      5.6581337801735279      9.0289208785070016      23.601852291173223
   355   2      2.5881506847948832      0.1380811307342002      21.659934234091068
   356   2      14.817878025647284      1.2535551973814849       23.68801241708865
   357   2       1.855114292361562      11.506654617586367      23.576085386196077
   358   2      10.893904149787076      3.5571585542016915      25.656998946586523
   359   2      12.129905321696823      13.481788819292232      25.917765230641276