ITEM: TIME
0
ITEM: TIMESTEP
0
ITEM: NUMBER OF ATOMS
2
ITEM: BOX BOUNDS xy xz yz pp pp ff
0.0000000000000000e+00 1.0000000000000000e+01 0.0000000000000000e+00
0.0000000000000000e+00 1.0000000000000000e+01 0.0000000000000000e+00
0.0000000000000000e+00 1.0000000000000000e+01 0.0000000000000000e+00
ITEM: ATOMS id element xu yu zu vx vy vz fx fy fz
1 C 4.328403000000000 5.000000000000000 5.000000000000000 0.000 0.000 0.000 1.517 0.000 0.000
2 F 5.671597000000000 5.000000000000000 5.000000000000000 0.000 0.000 0.000 -1.517 0.000 0.000
ITEM: TIME
0.001
ITEM: TIMESTEP
1
ITEM: NUMBER OF ATOMS
2
ITEM: BOX BOUNDS xy xz yz pp pp ff
0.0000000000000000e+00 1.0000000000000000e+01 0.0000000000000000e+00
0.0000000000000000e+00 1.0000000000000000e+01 0.0000000000000000e+00
0.0000000000000000e+00 1.0000000000000000e+01 0.0000000000000000e+00
ITEM: ATOMS id element xu yu zu vx vy vz fx fy fz
1 C 4.336977461652268 5.000000000000000 5.000000000000000 0.000 0.000 0.000 1.098 0.000 0.000
2 F 5.663022538347732 5.000000000000000 5.000000000000000 0.000 0.000 0.000 -1.098 0.000 0.000
ITEM: TIME
0.002
ITEM: TIMESTEP
2
ITEM: NUMBER OF ATOMS
2
ITEM: BOX BOUNDS xy xz yz pp pp ff
0.0000000000000000e+00 1.0000000000000000e+01 0.0000000000000000e+00
0.0000000000000000e+00 1.0000000000000000e+01 0.0000000000000000e+00
0.0000000000000000e+00 1.0000000000000000e+01 0.0000000000000000e+00
ITEM: ATOMS id element xu yu zu vx vy vz fx fy fz
1 C 4.342393166976063 5.000000000000000 5.000000000000000 0.000 0.000 0.000 0.766 0.000 0.000
2 F 5.657606833023937 5.000000000000000 5.000000000000000 0.000 0.000 0.000 -0.766 0.000 0.000
ITEM: TIME
0.003
ITEM: TIMESTEP
3
ITEM: NUMBER OF ATOMS
2
ITEM: BOX BOUNDS xy xz yz pp pp ff
0.0000000000000000e+00 1.0000000000000000e+01 0.0000000000000000e+00
0.0000000000000000e+00 1.0000000000000000e+01 0.0000000000000000e+00
0.0000000000000000e+00 1.0000000000000000e+01 0.0000000000000000e+00
ITEM: ATOMS id element xu yu zu vx vy vz fx fy fz
1 C 4.345888871038998 5.000000000000000 5.000000000000000 0.000 0.000 0.000 0.516 0.000 0.000
2 F 5.654111128961002 5.000000000000000 5.000000000000000 0.000 0.000 0.000 -0.516 0.000 0.000
ITEM: TIME
0.004
ITEM: TIMESTEP
4
ITEM: NUMBER OF ATOMS
2
ITEM: BOX BOUNDS xy xz yz pp pp ff
0.0000000000000000e+00 1.0000000000000000e+01 0.0000000000000000e+00
0.0000000000000000e+00 1.0000000000000000e+01 0.0000000000000000e+00
0.0000000000000000e+00 1.0000000000000000e+01 0.0000000000000000e+00
ITEM: ATOMS id element xu yu zu vx vy vz fx fy fz
1 C 4.348141069903020 5.000000000000000 5.000000000000000 0.000 0.000 0.000 0.339 0.000 0.000
2 F 5.651858930096980 5.000000000000000 5.000000000000000 0.000 0.000 0.000 -0.339 0.000 0.000
ITEM: TIME
0.005
ITEM: TIMESTEP
5
ITEM: NUMBER OF ATOMS
2
ITEM: BOX BOUNDS xy xz yz pp pp ff
0.0000000000000000e+00 1.0000000000000000e+01 0.0000000000000000e+00
0.0000000000000000e+00 1.0000000000000000e+01 0.0000000000000000e+00
0.0000000000000000e+00 1.0000000000000000e+01 0.0000000000000000e+00
ITEM: ATOMS id element xu yu zu vx vy vz fx fy fz
1 C 4.349580591251165 5.000000000000000 5.000000000000000 0.000 0.000 0.000 0.219 0.000 0.000
2 F 5.650419408748835 5.000000000000000 5.000000000000000 0.000 0.000 0.000 -0.219 0.000 0.000
ITEM: TIME
0.006
ITEM: TIMESTEP
6
ITEM: NUMBER OF ATOMS
2
ITEM: BOX BOUNDS xy xz yz pp pp ff
0.0000000000000000e+00 1.0000000000000000e+01 0.0000000000000000e+00
0.0000000000000000e+00 1.0000000000000000e+01 0.0000000000000000e+00
0.0000000000000000e+00 1.0000000000000000e+01 0.0000000000000000e+00
ITEM: ATOMS id element xu yu zu vx vy vz fx fy fz
1 C 4.350493594454626 5.000000000000000 5.000000000000000 0.000 0.000 0.000 0.140 0.000 0.000
2 F 5.649506405545374 5.000000000000000 5.000000000000000 0.000 0.000 0.000 -0.140 0.000 0.000
ITEM: TIME
0.007
ITEM: TIMESTEP
7
ITEM: NUMBER OF ATOMS
2
ITEM: BOX BOUNDS xy xz yz pp pp ff
0.0000000000000000e+00 1.0000000000000000e+01 0.0000000000000000e+00
0.0000000000000000e+00 1.0000000000000000e+01 0.0000000000000000e+00
0.0000000000000000e+00 1.0000000000000000e+01 0.0000000000000000e+00
ITEM: ATOMS id element xu yu zu vx vy vz fx fy fz
1 C 4.351069241170641 5.000000000000000 5.000000000000000 0.000 0.000 0.000 0.088 0.000 0.000
2 F 5.648930758829359 5.000000000000000 5.000000000000000 0.000 0.000 0.000 -0.088 0.000 0.000
ITEM: TIME
0.008
ITEM: TIMESTEP
8
ITEM: NUMBER OF ATOMS
2
ITEM: BOX BOUNDS xy xz yz pp pp ff
0.0000000000000000e+00 1.0000000000000000e+01 0.0000000000000000e+00
0.0000000000000000e+00 1.0000000000000000e+01 0.0000000000000000e+00
0.0000000000000000e+00 1.0000000000000000e+01 0.0000000000000000e+00
ITEM: ATOMS id element xu yu zu vx vy vz fx fy fz
1 C 4.351456334923949 5.000000000000000 5.000000000000000 0.000 0.000 0.000 0.053 0.000 0.000
2 F 5.648543665076051 5.000000000000000 5.000000000000000 0.000 0.000 0.000 -0.053 0.000 0.000
ITEM: TIME
0.009000000000000001
ITEM: TIMESTEP
9
ITEM: NUMBER OF ATOMS
2
ITEM: BOX BOUNDS xy xz yz pp pp ff
0.0000000000000000e+00 1.0000000000000000e+01 0.0000000000000000e+00
0.0000000000000000e+00 1.0000000000000000e+01 0.0000000000000000e+00
0.0000000000000000e+00 1.0000000000000000e+01 0.0000000000000000e+00
ITEM: ATOMS id element xu yu zu vx vy vz fx fy fz
1 C 4.351737276579298 5.000000000000000 5.000000000000000 0.000 0.000 0.000 0.027 0.000 0.000
2 F 5.648262723420702 5.000000000000000 5.000000000000000 0.000 0.000 0.000 -0.027 0.000 0.000
ITEM: TIME
0.01
ITEM: TIMESTEP
10
ITEM: NUMBER OF ATOMS
2
ITEM: BOX BOUNDS xy xz yz pp pp ff
0.0000000000000000e+00 1.0000000000000000e+01 0.0000000000000000e+00
0.0000000000000000e+00 1.0000000000000000e+01 0.0000000000000000e+00
0.0000000000000000e+00 1.0000000000000000e+01 0.0000000000000000e+00
ITEM: ATOMS id element xu yu zu vx vy vz fx fy fz
1 C 4.351929400711955 5.000000000000000 5.000000000000000 0.000 0.000 0.000 0.010 0.000 0.000
2 F 5.648070599288045 5.000000000000000 5.000000000000000 0.000 0.000 0.000 -0.010 0.000 0.000
ITEM: TIME
0.011
ITEM: TIMESTEP
11
ITEM: NUMBER OF ATOMS
2
ITEM: BOX BOUNDS xy xz yz pp pp ff
0.0000000000000000e+00 1.0000000000000000e+01 0.0000000000000000e+00
0.0000000000000000e+00 1.0000000000000000e+01 0.0000000000000000e+00
0.0000000000000000e+00 1.0000000000000000e+01 0.0000000000000000e+00
ITEM: ATOMS id element xu yu zu vx vy vz fx fy fz
1 C 4.352018119435090 5.000000000000000 5.000000000000000 0.000 0.000 0.000 0.001 0.000 0.000
2 F 5.647981880564910 5.000000000000000 5.000000000000000 0.000 0.000 0.000 -0.001 0.000 0.000
ITEM: TIME
0.012
ITEM: TIMESTEP
12
ITEM: NUMBER OF ATOMS
2
ITEM: BOX BOUNDS xy xz yz pp pp ff
0.0000000000000000e+00 1.0000000000000000e+01 0.0000000000000000e+00
0.0000000000000000e+00 1.0000000000000000e+01 0.0000000000000000e+00
0.0000000000000000e+00 1.0000000000000000e+01 0.0000000000000000e+00
ITEM: ATOMS id element xu yu zu vx vy vz fx fy fz
1 C 4.352032868033035 5.000000000000000 5.000000000000000 0.000 0.000 0.000 0.000 0.000 0.000
2 F 5.647967131966965 5.000000000000000 5.000000000000000 0.000 0.000 0.000 -0.000 0.000 0.000
