LAMMPS data file via write_data, version 2 Aug 2023, timestep = 14, units = metal

4 atoms
5 atom types

0 15 xlo xhi
0 15 ylo yhi
0 15 zlo zhi
0 0 0 xy xz yz

Masses

1 28.0855
2 15.999
3 12.011
4 1.00784
5 18.998

Atoms # atomic

3 5 6.34250895016154 7.762450544494207 6.8920512263229945 0 0 0
4 5 8.336742379771962 6.831055029945244 6.763158498500042 0 0 0
2 5 7.513622507740793 7.406605239249013 8.725886553047932 0 0 0
1 3 7.560942063549704 7.6879641710505355 7.424876201524035 0 0 0

Velocities

3 0 0 0
4 0 0 0
2 0 0 0
1 0 0 0
