(written by ASE)

4 atoms
5 atom types

0.0                      20  xlo xhi
0.0                      20  ylo yhi
0.0                      20  zlo zhi

Atoms # atomic

     1   3       7.560942063549704      7.6879641710505355       7.424876201524035
     2   5      7.5136225077407932      7.4066052392490134      8.7258865530479319
     3   5      6.3425089501615401      7.7624505444942073      6.8920512263229945
     4   5      8.3367423797719624      6.8310550299452437      6.7631584985000419
