LAMMPS (2 Aug 2023 - Update 1)
  using 1 OpenMP thread(s) per MPI task
##########################################################
# Simple cell relaxation CUBIC CELL
##########################################################
units           metal
newton          on
dimension       3
boundary        p p p
atom_style 	    atomic

#box tilt large
read_data       input.data
Reading data file ...
  orthogonal box = (0 0 0) to (20 20 20)
  2 by 4 by 4 MPI processor grid
  reading atoms ...
  4 atoms
  read_data CPU = 0.308 seconds

variable        path_potential  string  "/data2/andynn/Etch/05_EtchingMD/ver2/potential_saved_bestmodel"
variable        SEEDS           equal   20230925
pair_style      hybrid/overlay  nn/intel   zbl/pair
pair_coeff      * * nn/intel ${path_potential} Si O C H F
pair_coeff      * * nn/intel /data2/andynn/Etch/05_EtchingMD/ver2/potential_saved_bestmodel Si O C H F
AVX2 for angular descriptor G4 calc : on
AVX2 for angular descriptor G5 calc : off
AVX512 for descriptor calc : off

# pair_coeff  1 1  zbl/pair    14 14    1.94 2.05
pair_coeff  1 1  zbl/pair    14 14     1.598 2.054
pair_coeff  1 2  zbl/pair    14  8     1.070 1.376
pair_coeff  1 3  zbl/pair    14  6     1.208 1.553
pair_coeff  1 4  zbl/pair    14  1     1.079 1.388
pair_coeff  1 5  zbl/pair    14  9     1.145 1.472
pair_coeff  2 2  zbl/pair     8  8     0.863 1.110
pair_coeff  2 3  zbl/pair     8  6     0.800 1.029
pair_coeff  2 4  zbl/pair     8  1     0.691 0.888
pair_coeff  2 5  zbl/pair     8  9     0.961 1.235
pair_coeff  3 3  zbl/pair     6  6     0.920 1.183
pair_coeff  3 4  zbl/pair     6  1     0.797 1.024
pair_coeff  3 5  zbl/pair     6  9     0.908 1.168
pair_coeff  4 4  zbl/pair     1  1     0.525 0.675
pair_coeff  4 5  zbl/pair     1  9     0.657 0.844
pair_coeff  5 5  zbl/pair     9  9     0.997 1.282


mass    1   28.0855
mass    2   15.999
mass    3   12.011
mass    4   1.00784
mass    5   18.998


compute     POT_E       all     pe
variable    seeds       equal   ${SEEDS}
variable    seeds       equal   20230925
variable    log_step    equal   1


##########################################################
# Minimize                                               #
##########################################################

thermo 1

# dump        dMovie  all     custom  ${log_step} relax.dump #             id element xu yu zu  vx vy vz fx fy fz
# dump_modify dMovie  sort id time yes #             format line "%d %s %.15f %.15f %.15f %.3f %.3f %.3f %.3f %.3f %.3f"
# dump_modify dMovie  element  Si O C H F

run 0
WARNING: No fixes with time integration, atoms won't move (src/verlet.cpp:60)
Generated 0 of 10 mixed pair_coeff terms from geometric mixing rule
Neighbor list info ...
  update: every = 1 steps, delay = 0 steps, check = yes
  max neighbors/atom: 2000, page size: 100000
  master list distance cutoff = 8
  ghost atom cutoff = 8
  binsize = 4, bins = 5 5 5
  2 neighbor lists, perpetual/occasional/extra = 2 0 0
  (1) pair nn/intel, perpetual
      attributes: full, newton on
      pair build: full/bin/atomonly
      stencil: full/bin/3d
      bin: standard
  (2) pair zbl/pair, perpetual, half/full trim from (1)
      attributes: half, newton on, cut 4.054
      pair build: halffull/newton/trim
      stencil: none
      bin: none
Per MPI rank memory allocation (min/avg/max) = 3.581 | 3.585 | 3.706 Mbytes
   Step          Temp          E_pair         E_mol          TotEng         Press     
         0   0             -19.46906       0             -19.46906       9.3321286    
Loop time of 2.19466e-06 on 32 procs for 0 steps with 4 atoms

152.4% CPU use with 32 MPI tasks x 1 OpenMP threads

MPI task timing breakdown:
Section |  min time  |  avg time  |  max time  |%varavg| %total
---------------------------------------------------------------
Pair    | 0          | 0          | 0          |   0.0 |  0.00
Neigh   | 0          | 0          | 0          |   0.0 |  0.00
Comm    | 0          | 0          | 0          |   0.0 |  0.00
Output  | 0          | 0          | 0          |   0.0 |  0.00
Modify  | 0          | 0          | 0          |   0.0 |  0.00
Other   |            | 2.195e-06  |            |       |100.00

Nlocal:          0.125 ave           4 max           0 min
Histogram: 31 0 0 0 0 0 0 0 0 1
Nghost:        6.96875 ave          17 max           0 min
Histogram: 1 0 11 0 12 4 0 3 0 1
Neighs:         0.1875 ave           6 max           0 min
Histogram: 31 0 0 0 0 0 0 0 0 1
FullNghs:        0.375 ave          12 max           0 min
Histogram: 31 0 0 0 0 0 0 0 0 1

Total # of neighbors = 12
Ave neighs/atom = 3
Neighbor list builds = 0
Dangerous builds = 0
print "my_pe= $(pe) eV"
my_pe= -19.469059594513943523 eV
Total wall time: 0:00:01
