(written by ASE)

1506 atoms
5 atom types

0.0                      20  xlo xhi
0.0                      20  ylo yhi
0.0                     200  zlo zhi

Atoms # atomic

     1   2      9.0659390993967399      7.1756534901875311      1.5539998596126132
     2   2       8.571233516431942       9.464701567818901     0.92020121949518163
     3   1      7.7668904841016015      8.2120103790107315      1.4350578585580109
     4   2      6.7076259750053691      7.7760175947057331     0.19652865289087143
     5   2       6.055926688489679      5.1556470520492335     0.79686590179396044
     6   2      6.8782871292765746       8.421718841889188      2.7977694782497076
     7   2      1.3469914175966233       5.505758939061395      1.1872865520353395
     8   2      4.0642181841861795       9.586331037695393      1.3315039002036331
     9   2      4.1571196671160768       7.029986577644963     0.35520594781579229
    10   1      1.4003687765848103      6.7206194340467063      2.2252944412800715
    11   1      3.2210933817963916       8.408744269302769     0.47109173047908431
    12   2      1.9083154771459621      8.0236664125989225      1.2816204439834582
    13   1      9.5749635914453268     0.48663574922631153      1.1246552899122815
    14   2      9.7443591993576781      2.0348602754311909      1.5974181919448203
    15   1       9.729714412084947      3.6228898310408097      1.9955451532592317
    16   2      5.9699184883721523       3.488794727684744      2.8434564025246285
    17   2      5.9690057766177098       1.181284494561867      1.3657880327393919
    18   2      8.2318373862749361       4.080362950415795      2.1687982860145163
    19   1      6.1956824259753329      1.8482128855838544      2.9204688886931733
    20   1       6.761428522717071      4.7345159780664767      2.1715770262990031
    21   2      1.4105566737925879     0.59645645411010806      1.4005341973587502
    22   1      1.0383222747194689      4.0017611510926425     0.55098870071413852
    23   2      2.2324512414078832      3.0797849458150055     0.89100861784548924
    24   1        2.70505691910311      1.5953640946468117      1.1810719588257381
    25   2      3.2644082279043558      1.8844770027274653      2.7044850821589437
    26   2      26.911317490843771       5.863653976728437      3.3767316941791159
    27   2      2.3249053791200494      6.3047265438345512      3.5008883722874944
    28   1      6.3422154012508614      7.2627419225339453      3.8679262954776625
    29   1      11.761754144415775      9.5980330091964046      1.6467414199931023
    30   2      7.7120643568385638      21.685345856943961      3.8640517725394257
    31   2       18.13754270932909      9.0644561219424595      3.4980394801709385
    32   2      4.7549807757081046       6.878248625841743       4.028519572174587
    33   2      2.1599185606797509      8.9440217437746821      4.0494027335518972
    34   2      16.330891572980338    0.077643998724130206      3.6375106379436764
    35   1      14.368497598107769      6.0694303996188568      3.9236296018590346
    36   2      10.532844624865206      4.4517055320468284      0.9235809264958853
    37   1      11.314795685205912      5.2017466274054511      3.8504929963408374
    38   1      17.824063946905547     0.49868062816651515       3.137409228182555
    39   2   -0.032679626463856248       7.325388942564012      2.6699172765129089
    40   2     -0.6613789757166999      4.1815113541238729      3.4795900086215261
    41   2      19.708442477813257      3.4070407766906912      1.1190254130755815
    42   2      13.348388465149679      9.8689035649006982      1.9380074294294403
    43   2      10.963047553784275      8.8184136583917958      2.9206037646146488
    44   2      18.875599763309882     0.15035296593862396      1.9162354882464303
    45   2      17.360783632578041      6.8690736446107881      1.9701233090267749
    46   2      15.376275812380724      9.9164950856401433      3.8643097194224754
    47   2      15.649588391660618      9.0417840743063103      1.2474992653214514
    48   1      18.555482340687448      3.4383366595711151      2.2289491300625226
    49   1      16.450777552877753      5.4619471841353935      1.7446733557309104
    50   2      17.320561037771562      4.0879887210955177      1.4239677365260368
    51   2      14.169892237682404      7.5983493292837654      3.3051718856041692
    52   2       17.90353848946409      2.1655856606228641       3.012955216429233
    53   2      15.415525527904991      5.7935535046905731     0.50347273081363575
    54   2      10.663160506882914      3.7463984783562951      3.3969526246995918
    55   2      11.482568934601309      8.1815253797773302     0.62877176590762218
    56   2       11.17112700406463      6.1140965946757442       2.481400937465974
    57   1      10.601364909765707       7.525916080875974      1.9029082083567805
    58   1      14.588685702210693      9.0284741665302199      2.5693572908835951
    59   2      12.866301174480803      5.7169380965613561    0.024586453169320951
    60   2       15.54971674921198      5.2399395775175472      3.1629142603956502
    61   1      18.450519655391943      7.2940566576056831       3.161769505287451
    62   1      3.7949442161006863      2.6239173082153666      4.0294201205744384
    63   1      6.8500556097828991      3.8159221731336457      7.2437439915455109
    64   1      8.1275447729568757      1.6345161285657406      5.4722580070754629
    65   2      7.0199024095861065      2.4124467456315801      6.4529035242060555
    66   2      3.3984303609098747      5.8975752909220294      6.0676120368234256
    67   2      6.8565537236464769      7.6908480162382551      5.3815372798436378
    68   1      7.1982912824100254      8.8813787220172102      6.3817927972902213
    69   2      2.4490891333667038      20.511671325645064      7.1614652176096998
    70   2      8.5647255694574653      8.5750037005241229      7.1805618692383959
    71   1     0.45229360344012237      4.2668321899510362      7.4722893855232346
    72   1      4.4177705476992397       5.559333807021777      7.2491302215270936
    73   2      2.7005498871997631      2.2469587588714726      5.2184449854606756
    74   1      1.7485742662805992      21.138746158348827      5.8434897903238783
    75   2      5.7327970775600932      4.7908768643417012      6.6596782346428656
    76   2      6.1084761682679192      8.9819127091962923      7.5836049397611145
    77   2      8.3343722381158134      4.5383106862364979      6.9595817882646571
    78   2      9.6091578274468397      2.3947995638917643       5.738668182646248
    79   2      5.0359214317253054      20.039583908040868      7.3816908346333063
    80   1      1.1688329243090914      9.5298146955241201      5.1164860397981773
    81   2      9.8432560091155814       6.424496452331887      7.7478093247987374
    82   2     0.16829157891757349      1.5965058705614878      6.1926429493227717
    83   2     0.21272530579032239      4.5979409658358588      5.9026991438866085
    84   2      8.5129733717227154      20.129907883395852      6.0255324011777978
    85   2      18.919103066073944      6.9170578742743771      7.4810717472334352
    86   1      3.6097935843705029      5.7989425686817055      4.4186818557242535
    87   1      18.792545727231872      8.3024257485882025      6.6842975976713124
    88   1      10.704666305222242      2.4752789066018281      6.8948231186364461
    89   2      16.785286026317767      2.2437963650953208      7.3669802768426713
    90   1      16.323250668598646      8.4161499438024521      7.8805973574611361
    91   2      4.7147867944535458      6.7878731804321344      8.1940684734143083
    92   2      1.5098688010497952      3.1118317748397701      7.9785286015618313
    93   2      18.899550524900302      3.9637128702043056      8.0086938308449547
    94   2       15.01820772506294      6.2726153107720783        5.47985929511617
    95   2      18.371711674273605      6.4033058422564304      4.5653485684857902
    96   2      18.952133200085665      9.8136474433443368      7.4379775303469948
    97   1      17.424120713627268      3.7468638253984916      7.1655973923568501
    98   2  -0.0063633145438224403      8.4089888256031458      5.6320992444796882
    99   2      16.220858302070823       4.788905380681272      7.5764264194439157
   100   2      10.559117823555075      5.6162922832295727       5.304564379466207
   101   1      15.041216557999384      5.7695436807665264      7.0375108174010865
   102   2      15.345911260135443      9.6677944977700374      7.6631025165233275
   103   1       9.793644550224343      5.2365758914259599      6.7325911231119013
   104   1      12.780331201220703      3.6382724572827962      7.7190917310093141
   105   2      17.714600001588234      3.9746514193256122       5.562754456878988
   106   2       11.02860062625936      4.1247190865918819      7.3963248350985822
   107   2       17.19579855168152      8.3058741968477854      6.4596129887414202
   108   2      12.344708038132314      2.2801239282001302      6.7401133556237101
   109   1      18.917441673374881       4.849492289107463      4.9346296872642803
   110   2      13.592804891557257      4.9364795348081403      7.2467912019543697
   111   1      3.6640235302917006     0.44036311314878951       8.134825346558042
   112   2      15.384704453181897      7.0729956294272629      8.0059483224772965
   113   2      12.936294843746236      5.2345496606845563      4.1439671544552832
   114   1    -0.29812417565823424      0.0534356424721949      5.6548563261274873
   115   2     0.98805295528256731      5.7105464640172743      8.2408316479504293
   116   1      19.802295356353895      6.6804218276650476      8.8111698650436789
   117   2      10.166801335976112      1.9723544047542401      8.3453558682019935
   118   1      8.8145902984313071      7.4836861191797688       8.385998340840727
   119   1      16.634304296250136      1.1661798917435753       8.596500523087391
   120   1       5.847269829606824       7.844997318823034      8.7059851197117109
   121   2      3.8009260509978238      4.4088479937275098      8.2826770621435308
   122   2      5.1185300458063931      1.6939251095137857      4.1915068651253442
   123   2       3.829581746433913      4.2141595739671383      4.1417038424649739
   124   2       2.531042497830851      3.5981398630025785      10.530105544731873
   125   1      7.0685912065359124      3.4221140195515369      10.424647950916516
   126   2      4.5923622033415628      7.5928274279708248      10.788260360440169
   127   2      6.6108228703115701      1.9425728107376414       10.99441741427392
   128   2      6.4672005168979929      4.4592363539368938      11.511530051704575
   129   2      8.6649193469253341      23.371151156714038      10.175919974888915
   130   2       5.433476975128948      8.5087902310815338      10.228019718837173
   131   2      6.5662354560578562      3.5016085027213428      8.8548725393346466
   132   2      9.3934078625551933     0.70861679786190279       10.50549620875584
   133   1      9.7249470026152807      2.1154979704451065      9.8824669143286936
   134   2      2.3211801453282424     0.88108106933729713      11.352826743165753
   135   2      9.6295073699213205        7.82574616507077      9.7509823187496689
   136   1      9.9892874664495128      8.7296899993346777      11.030766233863543
   137   1       6.594360339655414     0.47645216022901782      11.589140923367685
   138   2      4.8870278417612898     0.12475298147286706      11.362996285597069
   139   1     0.76044280805072084     0.65203416122553559      10.993730320811666
   140   2      3.5729396660232804      1.8061017490528772      8.9609046706040001
   141   1      2.8613916847123728      3.2606441742063041      8.9651247129664888
   142   1      10.177901432835437     0.82558412832385075      11.977216303849882
   143   1      3.0892550928929534      3.6612784578646718      12.079958955503184
   144   2    0.091410323756653797      2.1000426391038021      10.659046541176535
   145   2      8.7237700622797938      9.7088631624184263      11.184009963672336
   146   2      20.101714649544753       8.169904564199225      9.4753296179701429
   147   2      7.2569851981355216      7.0127819297419087      8.8601707642226284
   148   1      13.842464258615365      1.8851956779175882      10.058314890684391
   149   2      16.787949537901362      6.3420150888785187      11.267714835408301
   150   2      10.918223726214624      2.3218567823622034      11.311049005463444
   151   2      13.116767616966287     0.40279965954153429      10.163071012759048
   152   2      -2.122703029118771      3.8179871981748108      10.585123307086546
   153   1      18.080834519820819      5.3520973625004178      11.139177428464397
   154   1      18.416890542013533      2.3233609312280294       10.79901953365537
   155   2      11.454874512659286      9.5101103176172437      10.874056701973496
   156   2      15.512123909921399      8.4857717738384597      12.115088958388155
   157   2      17.304019184062742      8.5280703690234425      9.1925481906243114
   158   2      13.593215633926841      2.5229559934781021       11.59551736018517
   159   2      17.731560904540338      1.3496879218419142      9.7585219670060486
   160   2      15.291214779522175      1.5816495759360887      9.4568549666124415
   161   2      13.084893309443837      3.0753789959013211      9.1608493254532188
   162   2      19.014421375580888      5.9101576250956214      9.9656964948109703
   163   1      18.701095365056691      8.8952531108413133      10.090161490583872
   164   2      19.093189720352399      8.6273499470658415      11.647410174962522
   165   2      9.0776845952832552      1.1863436518126298      13.174497813939629
   166   2      18.101126178633301      1.8461997925312534      12.363534948670305
   167   1      20.258059996921929      9.1866061022642498      12.642990317501463
   168   2      10.294026511605006      7.8908537825334513      12.384686061020975
   169   2      13.341468401751889      9.9272732724105417      13.313866387805954
   170   2      6.1284262340202922      6.5912562346611603      13.094163004124793
   171   2      4.0365211441292903      5.0838493238605071      12.108835796334455
   172   2      4.0919924637978644      2.3743957824792177      12.491600884531012
   173   1       14.99382100177054      9.8688247492120933        13.0488878746231
   174   2      6.7550631164889721     0.34927845515656053      13.266615359703039
   175   2      15.281465061540187      6.0157690240237294      13.281496995147664
   176   1      5.5588051804672913      5.1356640196082548      12.708001610655897
   177   2      18.781029526634526      5.1620556369125561      12.608714219729009
   178   1      18.513124382912459     0.31245639982737317      12.825771034818031
   179   1      16.240794028917524       7.166008334798236      12.571923262973076
   180   2      11.749617794548691      4.2868390526881219        12.8208122328732
   181   1      12.158020357448258      2.8291540872673999      12.395019012840056
   182   1      3.5964232778092775     0.87929280801805398      12.325728851696374
   183   2      7.2762548252073245        5.59636051472999      15.302607840961171
   184   1      6.1728189886628293      4.4367473729826532       15.61622167984082
   185   1      6.8404950061174397      7.0043771195379918      14.476267511761487
   186   2      8.1937206854708791      7.8629454015128264      14.065169234491167
   187   2      5.4551396267548116      4.2822292730173297      14.078209511590128
   188   2      5.8582157512896673      7.8822541866970441      15.486174868583364
   189   1      5.3845050799100038      9.3686404123000706      15.932444030186074
   190   1      1.9902822748670381      3.0907530615247736      14.954553533648443
   191   2      3.3961943999886435      2.3555425900029925      15.423868294712767
   192   2      2.0560241307392384      3.6751745006693537      13.374087468717534
   193   2      8.1625951941422734     0.49606043657696747      15.595158869214979
   194   1      20.771576301918053      7.3992894983490123      15.122753326251923
   195   2      20.954567228641817      7.9072329379517603      13.528074424146904
   196   2      6.1589423869054007      2.7924355536671861      15.888351392472986
   197   2      0.2147283224858304      8.7131902387976261       16.05082208179163
   198   2       19.54764572535365      9.9634896502007528      13.858658822150657
   199   2      20.852247313081588      1.9052174142619087      15.061758470144735
   200   1      9.7994355588183915      7.6069340581642351      13.960653980060917
   201   1      19.326589658292601      9.9287865868036693      15.461820012297659
   202   2       17.70838585100233       9.985984333624101      15.597031964455295
   203   2       1.559072618498123      4.2962348028009494      15.953880764932963
   204   2      2.0764199076762146      6.8659926140853855      16.022750638570098
   205   2      11.043111976696451    0.089633012086861585      15.504536583291129
   206   2      13.541209384730843    0.090817300490847214      14.530236647283562
   207   2      18.796782594324981     0.18605648663425536      14.396935312999288
   208   2      17.593862922186503       7.302819947875224      13.487725555641749
   209   1      11.323688558956791        5.00471689104553      14.233621432354781
   210   2      10.072195399610335      5.9929967298705407      14.010693768618228
   211   2      10.906866608534555      3.8904818484456105      15.362921208082406
   212   1      10.575548704686204      9.9887439378959684      15.990631052900323
   213   2       17.37868628914428      5.1714591267975587      14.847736442814968
   214   2       12.68309193635112      2.1081995009698278      15.965955111652818
   215   1      12.243021664322145     0.95567226243615011      14.893956597336032
   216   1      8.1565271651510294    0.046392027764854571      14.029640325302225
   217   1      16.165537349928996      9.4833378425611912      15.810554939863136
   218   1      15.803848321963763      4.8864686236482395      14.377863032783095
   219   2      11.744590282025467      1.6328055608866132      13.494852050979222
   220   2      14.827200487652439      4.8183089986479821      15.612017637413997
   221   2      15.535681377856072      8.9358454122976383      14.392871212618626
   222   2      10.483426040961954      8.5687890205413684      15.146355476047161
   223   2      18.100725230518151      2.4149192324190674      15.293903172965697
   224   1      19.355721810060956      1.3246786948633715      15.454289584292574
   225   2      15.912634029995125      3.3352461712814114      13.769044794088082
   226   2      16.022280319074298     0.73241712781711199      14.053975584916776
   227   2      12.574768798703328      5.8038975559689989      14.870261398029966
   228   1      16.485828376933409      2.1880782310808824      14.840545218766991
   229   2      19.639607527820402      6.2470214249991374      15.070581881003692
   230   1      18.449118489514529      5.9961580253985671      13.965375613812578
   231   2      8.9320653415452398     0.80786969953125509      18.152564480159704
   232   2      15.798624614734161      2.1574255155325233      16.253619664875089
   233   2      16.016053276213292      5.8917716693162365      18.072937199913593
   234   1      1.8854745858387976      5.5204469749090901      17.017690698051833
   235   1      13.534073862252738      5.5443890427199882      16.262768930306354
   236   2      10.868738832720803       9.700701805126771      17.597147942735329
   237   2     0.64165072108341037      5.7663855279455358      17.933511662622266
   238   2       4.494965849636186      9.1414707885139084      17.270037294076428
   239   2      17.146123974601064     0.72601587022675318      17.912019131207042
   240   2      12.771261089159731      4.4867722010401883      17.234113299178244
   241   2      4.9276867681922916      0.4052335356045762      16.476321076444925
   242   1      4.7503949736072331      2.0331179633914234       16.35808654994899
   243   2      5.6680745926775202      4.9888887745984691      17.024770429408051
   244   1      15.322246986259469      7.3282836550792352      17.804121815127939
   245   2      10.636685589540578      2.8106471481473077      17.743809860228229
   246   1        16.3413379995947      2.1854549625482402      17.768468784166974
   247   2      14.023002123116079      6.9543913556848578       16.92118675241419
   248   2       3.255724162889464       5.263786719013174      17.850526193896997
   249   1       11.73341926760564      3.3012817306515929       16.63782227019977
   250   2       16.93549518233943      3.7116163652221834       18.13212646918042
   251   2      19.418952756542673     0.37824286173168936      16.795431689201063
   252   2       16.40006430265915      8.2848981605274403      17.022880783118321
   253   2      24.394025541196555     -17.232121844559703      17.788572226901792
   254   1      4.5285223027363504       4.383421239869274      18.131019471243373
   255   2      1.3696633495932551      3.6521378415011627      20.153428653585816
   256   2      9.2336254559236473      8.4264049619121248      20.206844496099947
   257   2      4.9117885319913839      4.7502270660165182      19.721063551581711
   258   2      20.845350958181768       1.129808785502513      19.248985215722666
   259   1      20.790000477031299      2.1744569484864917      20.524397226356285
   260   1      1.3383891913329631      9.2872201988506582      20.194851918409139
   261   1      7.7911643362108807      8.9475399625547212      20.870069234144044
   262   2     0.45978778156944483      6.0460288417091901      20.638571289888294
   263   2      6.7882996999958456      9.4814722137519922      19.739368768088898
   264   2      2.9585192983709203      5.4789918645568259      21.497467401020824
   265   2      0.4655233710652546       8.286563120860702      19.130688453693768
   266   2      16.032767866111215      5.6071365849033041      20.601243341744954
   267   1      14.545564796037382      5.1258904864220609      20.860111960519095
   268   1      17.815098460906931       3.122895088244102      21.076558737214121
   269   2      9.3503014627700924      1.7383826977405392      21.225784443415314
   270   2      9.8597725254761226      22.426760636993741      20.205140190079856
   271   2       14.72972077943033      8.2104239615666241      19.021501193169399
   272   1      10.831598830307774      8.7557382567224806      20.572616843146935
   273   2      11.579526454628224     0.60123792494373141       19.04155127326035
   274   1      10.200722948531105      1.6269650687326522      18.766366599130418
   275   2      16.526437662532185      2.1871424846398826      20.606574520732956
   276   2      18.132345865007473      4.3735144954502045      20.189892500188979
   277   2      12.006559893076412      8.0167975562021372      19.617367085749745
   278   1      13.609911045413451      7.7646670925563477      20.099558299478097
   279   2      14.922516176853975      1.8818556757283786      18.545947073060045
   280   2      18.362492224120032      6.4028651401272638      18.906298856829832
   281   1      14.937223867014735      2.2647124757850308      20.095767259802887
   282   2      14.147760989230742      1.0630600596963529      20.917814964857211
   283   1       17.07061242306338      5.2623213454289521      19.191743471157913
   284   2      14.128773331984208      3.6527854530344217      20.264511461265112
   285   1    -0.09159707824317076       6.638563388056137      19.157776029770694
   286   2      13.452146073564137      6.1712712107126899      20.343577010505904
   287   1        1.42865519737179      4.9192205196304446      21.280338939213994
   288   2      19.276267915254014      2.2042459737751359       21.07220313183182
   289   1      14.068829547354786      9.5854408907149899      22.659401599805573
   290   2      15.567046731409226      9.5851865674232037      23.448201521073294
   291   2      2.1357457392681614      8.6067026337075276      21.379254984736221
   292   1      4.4964504592856454      4.8107011659409826       21.29781344323855
   293   2      11.876279669350417     0.28882071034956153      22.207670003130989
   294   1      17.545196220419232      0.1015260929862026      23.466234798605161
   295   2      22.016527923957639      21.634300070641565      21.509700406131735
   296   2      20.768738574159187      4.2291639447678033      22.614868890559478
   297   2      5.8187402937795287       5.495995679642169      22.177408607662215
   298   1      13.329586607992802      1.0541279746790841      22.306511160899682
   299   2      7.2269406789574759      7.6874824989212511      21.692656745337302
   300   1      3.3485309801238849       2.086977116337478      22.402198689336458
   301   5      17.604088215130496     0.38996122683415213      21.965663983054089
   302   2       4.348684281984216      3.2554290374367998      21.840617549500241
   303   2      14.327055419102035      4.9311169736889475      22.438616391522217
   304   2      11.097101439941868      8.1258982147203938      22.018673439921514
   305   2      14.227452580455635       8.550113280796797      21.353435859566826
   306   2      17.568888452777646      3.5815441300479534      22.624760114295139
   307   2      18.055865788422604      9.3660172833085742      22.365974216314985
   308   2      4.2027734500915708     0.73003275865082806      22.620599690843193
   309   1      6.6208367321296313      6.7959280749677875      23.016003766281884
   310   2        13.2302380997843      2.4843146019237574       23.02066264058719
   311   2      5.5889707247038265       7.489671413599055      24.062648940472126
   312   1      1.2171381593106099      3.5138712651567601      24.093382522976786
   313   2      7.9433762136296604      6.8190822897300514      24.077615793025377
   314   1      8.9183046039829925      7.6800961887229899      25.134993006436247
   315   1      4.4481750392829138      7.8967885752304063      25.256351001185923
   316   2      4.6080864288521095      9.5394756459893451      25.220523875582156
   317   2      3.2891067266546066      6.7924018074875203      24.858774004244914
   318   2      1.5798501700759338      4.7316615055198454      25.113215258251977
   319   2       20.05648362561999      2.7819060245067884      24.852632844984377
   320   2      2.5081282808620973      2.5479420859323749      23.786292351766512
   321   5      5.3007919428595205      2.6687890852357383      24.945916041364789
   322   1      2.7954877481815994      5.5455935077059761      25.815846484740508
   323   1      12.106247851698589      5.5770872219958747      25.378507054400913
   324   2      10.268277106831899      8.2807841479071396      24.487347644837989
   325   1      17.119747494660963      9.2161511190502221      23.729164009392289
   326   1      11.561230170958339      7.9558923377431743      23.519684822909944
   327   2      17.053298934805838       1.477403234956161      24.095694336821694
   328   2      12.882108852541432       8.911914188827204      23.673595667126584
   329   2      15.371944501641153      3.5691434623459699      24.371866269510871
   330   2      17.150241863764176      8.0009305769764225       24.79785322579507
   331   2      17.821533163726329      3.8717092654633456      25.235433429268955
   332   1      16.885144125558284      3.1284806579511648      24.003970618034064
   333   1      13.960464236843606      3.8282359077021177      23.540444177012713
   334   2      11.809568556167493      6.3303192549613483       23.83920916535568
   335   2       13.14234394150283      4.5388475134450434      24.730311524605064
   336   2      11.107531315329229      4.4173212992498687      26.143829181664636
   337   2      21.943025818465056      9.8012735187494986      28.241042839014614
   338   2      10.237691951902653      21.873708465708894      25.945669175340765
   339   2      5.3852744425750645      20.099715462684081      27.038082507009857
   340   1      6.4548048419897341      21.101686509252321      27.798522013625231
   341   1      5.2793764148922602      7.1670052853088917      28.021234255168149
   342   1      17.015969396987771      2.3635738517823497      28.001541116173801
   343   1      8.0350521742033205      6.3866750169699156      27.741244142898253
   344   2      7.9545064828578216      20.991760394277232      27.143768455770751
   345   1      9.2179244768073954      20.603413166759825      26.157633155854555
   346   1      3.8318117173756998     0.29203447675864824      26.583892414905151
   347   2      8.3619119729734912      9.0515329631248296       25.75790776464245
   348   2       6.544809838906823       6.622478383189252      27.179148646104327
   349   2      4.4608500812689318      7.8698613804677109      26.875578563110551
   350   2      3.5290239349130492       1.924542223798823      26.682265002661527
   351   1       11.20677406718568      2.9152428342471377      26.695881647010257
   352   2      12.473274208116777      6.7042055332922024      26.437634337139727
   353   1       17.16578335818134       8.749105215462027      26.288780333084986
   354   2     -1.8558462259842834      1.9606944746878308      26.927179343601633
   355   1      13.947588829113046      2.3258050220579891      27.933528219877861
   356   2      15.509660020410465      2.5548004922855689      27.285085806576937
   357   2       19.83370145459385      4.0164865749324168      27.273630765794938
   358   2       18.04144957911317      8.7259212266634929      27.605661583572722
   359   2      12.896360603834928      2.6021601983138214      26.697958411208212