LAMMPS data file via write_data, version 2 Aug 2023, timestep = 7700, units = metal

1516 atoms
5 atom types

0 20 xlo xhi
0 20 ylo yhi
0 200 zlo zhi

Masses

1 28.0855
2 15.999
3 12.011
4 1.00784
5 18.998

Atoms # atomic

1 2 9.06593909939674 7.175653490187531 1.5539998596126132 0 0 0
2 2 8.571233516431942 9.464701567818901 0.9202012194951816 0 0 0
3 1 7.7668904841016015 8.212010379010731 1.435057858558011 0 0 0
4 2 6.707625975005369 7.776017594705733 0.19652865289087143 0 0 0
5 2 6.055926688489679 5.1556470520492335 0.7968659017939604 0 0 0
6 2 6.878287129276574 8.421718841889188 2.7977694782497076 0 0 0
7 2 1.3469914175966233 5.505758939061395 1.1872865520353395 0 0 0
8 2 4.0642181841861795 9.586331037695393 1.331503900203633 0 0 0
9 2 4.157119667116077 7.029986577644963 0.3552059478157923 0 0 0
10 1 1.4003687765848103 6.720619434046705 2.2252944412800715 0 0 0
11 1 3.2210933817963916 8.408744269302769 0.4710917304790843 0 0 0
12 2 1.908315477145962 8.023666412598923 1.2816204439834582 0 0 0
13 1 9.574963591445327 0.48663574922631153 1.1246552899122815 0 0 0
14 2 9.744359199357678 2.034860275431191 1.5974181919448203 0 0 0
15 1 9.729714412084947 3.6228898310408097 1.9955451532592317 0 0 0
16 2 5.969918488372152 3.488794727684744 2.8434564025246285 0 0 0
17 2 5.96900577661771 1.181284494561867 1.3657880327393919 0 0 0
18 2 8.231837386274936 4.080362950415795 2.1687982860145163 0 0 0
19 1 6.195682425975333 1.8482128855838544 2.9204688886931733 0 0 0
20 1 6.761428522717071 4.734515978066477 2.171577026299003 0 0 0
21 2 1.4105566737925879 0.5964564541101081 1.4005341973587502 0 0 0
22 1 1.038322274719469 4.0017611510926425 0.5509887007141385 0 0 0
23 2 2.232451241407883 3.0797849458150055 0.8910086178454892 0 0 0
24 1 2.70505691910311 1.5953640946468117 1.1810719588257381 0 0 0
25 2 3.2644082279043554 1.8844770027274653 2.7044850821589437 0 0 0
26 2 6.9113174908437705 5.863653976728437 3.376731694179116 1 0 0
27 2 2.3249053791200494 6.304726543834551 3.5008883722874944 0 0 0
29 1 6.342215401250861 7.2627419225339445 3.8679262954776625 0 0 0
55 1 11.761754144415775 9.598033009196405 1.6467414199931023 0 0 0
28 2 7.712064356838564 1.6853458569439617 3.8640517725394257 0 1 0
107 2 18.13754270932909 9.06445612194246 3.4980394801709385 0 0 0
122 2 4.754980775708105 6.878248625841742 4.028519572174587 0 0 0
84 2 2.159918560679751 8.944021743774682 4.049402733551897 0 0 0
745 2 16.330891572980338 0.0776439987241302 3.6375106379436764 0 0 0
57 1 14.36849759810777 6.069430399618857 3.9236296018590346 0 0 0
50 2 10.532844624865206 4.451705532046828 0.9235809264958853 0 0 0
32 1 11.314795685205912 5.201746627405451 3.8504929963408374 0 0 0
33 1 17.824063946905547 0.49868062816651515 3.137409228182555 0 0 0
37 2 19.967320373536143 7.325388942564011 2.669917276512909 -1 0 0
31 2 19.3386210242833 4.181511354123873 3.479590008621526 -1 0 0
34 2 19.708442477813257 3.407040776690691 1.1190254130755815 0 0 0
36 2 13.348388465149679 9.868903564900698 1.9380074294294403 0 0 0
59 2 10.963047553784275 8.818413658391796 2.9206037646146488 0 0 0
38 2 18.875599763309882 0.15035296593862396 1.9162354882464303 0 0 0
39 2 17.36078363257804 6.869073644610788 1.970123309026775 0 0 0
754 2 15.376275812380722 9.916495085640143 3.8643097194224754 0 0 0
58 2 15.649588391660618 9.04178407430631 1.2474992653214514 0 0 0
40 1 18.555482340687448 3.438336659571115 2.2289491300625226 0 0 0
41 1 16.450777552877753 5.4619471841353935 1.7446733557309104 0 0 0
43 2 17.32056103777156 4.087988721095518 1.4239677365260368 0 0 0
46 2 14.169892237682404 7.598349329283765 3.305171885604169 0 0 0
30 2 17.90353848946409 2.165585660622864 3.012955216429233 0 0 0
47 2 15.415525527904991 5.793553504690573 0.5034727308136357 0 0 0
49 2 10.663160506882914 3.746398478356295 3.396952624699592 0 0 0
48 2 11.482568934601309 8.18152537977733 0.6287717659076222 0 0 0
42 2 11.17112700406463 6.114096594675744 2.481400937465974 0 0 0
53 1 10.601364909765707 7.525916080875974 1.9029082083567805 0 0 0
52 1 14.588685702210691 9.02847416653022 2.569357290883595 0 0 0
51 2 12.866301174480803 5.716938096561356 0.02458645316932095 0 0 0
44 2 15.549716749211978 5.239939577517547 3.16291426039565 0 0 0
56 1 18.450519655391943 7.294056657605683 3.161769505287451 0 0 0
81 1 3.7949442161006863 2.6239173082153666 4.029420120574438 0 0 0
89 1 6.850055609782899 3.8159221731336457 7.243743991545511 0 0 0
74 1 8.127544772956876 1.6345161285657406 5.472258007075463 0 0 0
73 2 7.019902409586106 2.41244674563158 6.4529035242060555 0 0 0
71 2 3.3984303609098747 5.897575290922029 6.067612036823426 0 0 0
70 2 6.856553723646477 7.690848016238255 5.381537279843638 0 0 0
69 1 7.198291282410025 8.88137872201721 6.381792797290221 0 0 0
68 2 2.4490891333667038 0.5116713256450649 7.1614652176097 0 1 0
63 2 8.564725569457465 8.575003700524123 7.180561869238396 0 0 0
62 1 0.45229360344012237 4.266832189951036 7.472289385523235 0 0 0
61 1 4.41777054769924 5.559333807021776 7.249130221527094 0 0 0
82 2 2.700549887199763 2.2469587588714726 5.218444985460676 0 0 0
125 1 1.7485742662805992 1.1387461583488248 5.843489790323878 0 1 0
79 2 5.732797077560093 4.790876864341701 6.659678234642866 0 0 0
76 2 6.108476168267918 8.981912709196292 7.5836049397611145 0 0 0
75 2 8.334372238115813 4.538310686236498 6.959581788264657 0 0 0
66 2 9.60915782744684 2.3947995638917643 5.738668182646248 0 0 0
114 2 5.035921431725305 0.03958390804086885 7.381690834633306 0 1 0
65 1 1.1688329243090914 9.52981469552412 5.116486039798177 0 0 0
83 2 9.843256009115581 6.424496452331886 7.747809324798737 0 0 0
77 2 0.1682915789175735 1.5965058705614878 6.192642949322772 0 0 0
67 2 0.2127253057903224 4.597940965835859 5.9026991438866085 0 0 0
806 2 8.512973371722715 0.1299078833958497 6.025532401177798 0 1 0
91 2 18.919103066073944 6.917057874274377 7.481071747233435 0 0 0
124 1 3.609793584370503 5.798942568681705 4.4186818557242535 0 0 0
85 1 18.79254572723187 8.302425748588202 6.684297597671312 0 0 0
102 1 10.70466630522224 2.475278906601828 6.894823118636446 0 0 0
112 2 16.785286026317767 2.2437963650953208 7.366980276842671 0 0 0
101 1 16.323250668598646 8.416149943802452 7.880597357461136 0 0 0
72 2 4.714786794453546 6.787873180432134 8.194068473414308 0 0 0
64 2 1.5098688010497952 3.1118317748397697 7.978528601561831 0 0 0
105 2 18.899550524900302 3.9637128702043056 8.008693830844955 0 0 0
90 2 15.01820772506294 6.2726153107720775 5.47985929511617 0 0 0
45 2 18.371711674273605 6.4033058422564295 4.56534856848579 0 0 0
106 2 18.952133200085665 9.813647443344337 7.437977530346995 0 0 0
96 1 17.424120713627268 3.746863825398491 7.16559739235685 0 0 0
80 2 19.993636685456178 8.408988825603146 5.632099244479688 -1 0 0
100 2 16.220858302070823 4.788905380681272 7.576426419443916 0 0 0
93 2 10.559117823555075 5.616292283229573 5.304564379466207 0 0 0
95 1 15.041216557999384 5.769543680766526 7.0375108174010865 0 0 0
111 2 15.345911260135443 9.667794497770037 7.6631025165233275 0 0 0
109 1 9.793644550224343 5.236575891425959 6.732591123111901 0 0 0
99 1 12.780331201220703 3.6382724572827962 7.719091731009314 0 0 0
103 2 17.714600001588234 3.974651419325612 5.562754456878988 0 0 0
108 2 11.028600626259358 4.124719086591882 7.396324835098582 0 0 0
104 2 17.19579855168152 8.305874196847785 6.45961298874142 0 0 0
98 2 12.344708038132314 2.28012392820013 6.74011335562371 0 0 0
88 1 18.91744167337488 4.849492289107463 4.93462968726428 0 0 0
94 2 13.592804891557257 4.93647953480814 7.24679120195437 0 0 0
60 1 3.6640235302917006 0.4403631131487895 8.134825346558042 0 0 0
110 2 15.384704453181895 7.072995629427263 8.005948322477296 0 0 0
35 2 12.936294843746236 5.234549660684556 4.143967154455283 0 0 0
78 1 19.701875824341766 0.0534356424721949 5.654856326127487 -1 0 0
113 2 0.9880529552825673 5.710546464017274 8.24083164795043 0 0 0
121 1 19.802295356353895 6.680421827665047 8.811169865043679 0 0 0
97 2 10.166801335976112 1.97235440475424 8.345355868201993 0 0 0
117 1 8.814590298431307 7.483686119179769 8.385998340840727 0 0 0
120 1 16.634304296250136 1.1661798917435753 8.596500523087391 0 0 0
86 1 5.847269829606824 7.844997318823033 8.70598511971171 0 0 0
118 2 3.8009260509978238 4.40884799372751 8.28267706214353 0 0 0
123 2 5.118530045806393 1.6939251095137857 4.191506865125344 0 0 0
850 2 3.829581746433913 4.214159573967138 4.141703842464974 0 0 0
136 2 2.531042497830851 3.5981398630025785 10.530105544731873 0 0 0
134 1 7.0685912065359116 3.422114019551537 10.424647950916516 0 0 0
132 2 4.592362203341563 7.592827427970825 10.78826036044017 0 0 0
139 2 6.61082287031157 1.9425728107376412 10.99441741427392 0 0 0
128 2 6.467200516897993 4.459236353936894 11.511530051704575 0 0 0
127 2 8.664919346925334 3.37115115671404 10.175919974888915 0 1 0
138 2 5.433476975128948 8.508790231081534 10.228019718837173 0 0 0
137 2 6.566235456057856 3.5016085027213424 8.854872539334647 0 0 0
151 2 9.393407862555193 0.7086167978619028 10.50549620875584 0 0 0
149 1 9.72494700261528 2.1154979704451065 9.882466914328694 0 0 0
140 2 2.3211801453282424 0.881081069337297 11.352826743165753 0 0 0
133 2 9.62950736992132 7.82574616507077 9.750982318749669 0 0 0
130 1 9.989287466449513 8.729689999334678 11.030766233863543 0 0 0
145 1 6.594360339655413 0.4764521602290178 11.589140923367685 0 0 0
129 2 4.88702784176129 0.12475298147286705 11.362996285597069 0 0 0
135 1 0.7604428080507207 0.6520341612255356 10.993730320811666 0 0 0
119 2 3.57293966602328 1.806101749052877 8.960904670604 0 0 0
142 1 2.861391684712373 3.260644174206304 8.965124712966489 0 0 0
841 1 10.177901432835437 0.8255841283238506 11.977216303849882 0 0 0
191 1 3.0892550928929534 3.6612784578646713 12.079958955503184 0 0 0
160 2 0.09141032375665378 2.100042639103802 10.659046541176535 0 0 0
870 2 8.723770062279794 9.708863162418426 11.184009963672336 0 0 0
155 2 0.10171464954475455 8.169904564199225 9.475329617970143 1 0 0
115 2 7.256985198135521 7.012781929741909 8.860170764222628 0 0 0
158 1 13.842464258615365 1.8851956779175882 10.058314890684391 0 0 0
157 2 16.787949537901362 6.342015088878519 11.2677148354083 0 0 0
164 2 10.918223726214624 2.3218567823622034 11.311049005463444 0 0 0
146 2 13.116767616966285 0.4027996595415343 10.163071012759048 0 0 0
163 2 17.87729697088123 3.817987198174811 10.585123307086546 -1 0 0
166 1 18.08083451982082 5.352097362500418 11.139177428464397 0 0 0
156 1 18.416890542013533 2.3233609312280294 10.79901953365537 0 0 0
168 2 11.454874512659286 9.510110317617244 10.874056701973496 0 0 0
177 2 15.5121239099214 8.48577177383846 12.115088958388155 0 0 0
159 2 17.304019184062742 8.528070369023443 9.192548190624311 0 0 0
165 2 13.593215633926839 2.522955993478102 11.59551736018517 0 0 0
170 2 17.731560904540338 1.3496879218419142 9.758521967006049 0 0 0
167 2 15.291214779522175 1.5816495759360887 9.456854966612442 0 0 0
116 2 13.084893309443837 3.075378995901321 9.160849325453219 0 0 0
153 2 19.014421375580888 5.910157625095621 9.96569649481097 0 0 0
169 1 18.70109536505669 8.895253110841313 10.090161490583872 0 0 0
161 2 19.0931897203524 8.627349947065841 11.647410174962522 0 0 0
874 2 9.077684595283255 1.1863436518126298 13.17449781393963 0 0 0
162 2 18.1011261786333 1.8461997925312534 12.363534948670305 0 0 0
154 1 0.2580599969219313 9.18660610226425 12.642990317501463 1 0 0
147 2 10.294026511605004 7.89085378253345 12.384686061020975 0 0 0
948 2 13.34146840175189 9.927273272410542 13.313866387805954 0 0 0
194 2 6.128426234020291 6.59125623466116 13.094163004124793 0 0 0
171 2 4.03652114412929 5.083849323860507 12.108835796334455 0 0 0
188 2 4.091992463797864 2.3743957824792177 12.491600884531012 0 0 0
176 1 14.993821001770538 9.868824749212093 13.0488878746231 0 0 0
904 2 6.755063116488971 0.34927845515656053 13.266615359703039 0 0 0
222 2 15.281465061540187 6.0157690240237285 13.281496995147664 0 0 0
173 1 5.558805180467291 5.135664019608255 12.708001610655897 0 0 0
178 2 18.781029526634526 5.162055636912555 12.60871421972901 0 0 0
148 1 18.51312438291246 0.31245639982737317 12.82577103481803 0 0 0
174 1 16.240794028917524 7.166008334798236 12.571923262973076 0 0 0
143 2 11.74961779454869 4.286839052688122 12.8208122328732 0 0 0
150 1 12.158020357448258 2.8291540872674 12.395019012840056 0 0 0
172 1 3.5964232778092775 0.879292808018054 12.325728851696374 0 0 0
200 2 7.2762548252073245 5.59636051472999 15.302607840961171 0 0 0
182 1 6.172818988662829 4.436747372982653 15.61622167984082 0 0 0
198 1 6.84049500611744 7.004377119537992 14.476267511761487 0 0 0
192 2 8.193720685470879 7.862945401512826 14.065169234491167 0 0 0
190 2 5.455139626754811 4.28222927301733 14.078209511590128 0 0 0
205 2 5.858215751289667 7.882254186697044 15.486174868583364 0 0 0
187 1 5.384505079910003 9.36864041230007 15.932444030186074 0 0 0
181 1 1.9902822748670381 3.0907530615247736 14.954553533648443 0 0 0
195 2 3.3961943999886435 2.3555425900029925 15.423868294712767 0 0 0
185 2 2.0560241307392384 3.6751745006693537 13.374087468717534 0 0 0
939 2 8.162595194142273 0.49606043657696747 15.595158869214979 0 0 0
184 1 0.7715763019180488 7.399289498349011 15.122753326251923 1 0 0
175 2 0.9545672286418174 7.907232937951759 13.528074424146904 1 0 0
189 2 6.1589423869054 2.792435553667186 15.888351392472986 0 0 0
197 2 0.2147283224858304 8.713190238797626 16.05082208179163 0 0 0
944 2 19.54764572535365 9.963489650200753 13.858658822150657 0 0 0
206 2 0.8522473130815882 1.9052174142619087 15.061758470144735 1 0 0
193 1 9.799435558818391 7.606934058164235 13.960653980060917 0 0 0
214 1 19.3265896582926 9.92878658680367 15.46182001229766 0 0 0
230 2 17.70838585100233 9.985984333624101 15.597031964455295 0 0 0
233 2 1.559072618498123 4.296234802800949 15.953880764932963 0 0 0
186 2 2.0764199076762146 6.865992614085385 16.0227506385701 0 0 0
971 2 11.043111976696451 0.08963301208686159 15.504536583291129 0 0 0
937 2 13.541209384730843 0.09081730049084721 14.530236647283562 0 0 0
935 2 18.79678259432498 0.18605648663425536 14.396935312999288 0 0 0
209 2 17.593862922186503 7.302819947875224 13.487725555641749 0 0 0
226 1 11.32368855895679 5.00471689104553 14.23362143235478 0 0 0
179 2 10.072195399610335 5.992996729870541 14.010693768618228 0 0 0
217 2 10.906866608534555 3.89048184844561 15.362921208082406 0 0 0
207 1 10.575548704686204 9.988743937895968 15.990631052900323 0 0 0
215 2 17.37868628914428 5.171459126797559 14.847736442814968 0 0 0
212 2 12.68309193635112 2.1081995009698278 15.965955111652818 0 0 0
225 1 12.243021664322145 0.95567226243615 14.893956597336032 0 0 0
925 1 8.15652716515103 0.04639202776485457 14.029640325302225 0 0 0
219 1 16.165537349928996 9.483337842561191 15.810554939863136 0 0 0
208 1 15.803848321963763 4.8864686236482395 14.377863032783095 0 0 0
141 2 11.744590282025467 1.6328055608866132 13.494852050979222 0 0 0
218 2 14.827200487652439 4.818308998647982 15.612017637413997 0 0 0
940 2 15.53568137785607 8.935845412297638 14.392871212618626 0 0 0
220 2 10.483426040961954 8.568789020541368 15.14635547604716 0 0 0
210 2 18.10072523051815 2.4149192324190674 15.293903172965697 0 0 0
227 1 19.355721810060956 1.3246786948633715 15.454289584292574 0 0 0
221 2 15.912634029995123 3.335246171281411 13.769044794088082 0 0 0
204 2 16.022280319074298 0.732417127817112 14.053975584916776 0 0 0
216 2 12.574768798703328 5.803897555968999 14.870261398029966 0 0 0
223 1 16.48582837693341 2.1880782310808824 14.84054521876699 0 0 0
211 2 19.639607527820402 6.2470214249991365 15.070581881003692 0 0 0
213 1 18.44911848951453 5.996158025398566 13.965375613812578 0 0 0
265 2 8.93206534154524 0.807869699531255 18.152564480159704 0 0 0
236 2 15.798624614734159 2.1574255155325233 16.25361966487509 0 0 0
231 2 16.01605327621329 5.8917716693162365 18.072937199913593 0 0 0
255 1 1.8854745858387973 5.52044697490909 17.017690698051833 0 0 0
224 1 13.534073862252738 5.544389042719988 16.262768930306354 0 0 0
241 2 10.868738832720803 9.700701805126771 17.59714794273533 0 0 0
228 2 0.6416507210834104 5.766385527945536 17.933511662622266 0 0 0
247 2 4.494965849636186 9.141470788513908 17.270037294076428 0 0 0
962 2 17.146123974601064 0.7260158702267532 17.912019131207042 0 0 0
239 2 12.77126108915973 4.486772201040188 17.234113299178244 0 0 0
930 2 4.927686768192292 0.4052335356045762 16.476321076444925 0 0 0
180 1 4.750394973607233 2.0331179633914234 16.35808654994899 0 0 0
183 2 5.66807459267752 4.988888774598469 17.02477042940805 0 0 0
242 1 15.322246986259469 7.328283655079235 17.80412181512794 0 0 0
240 2 10.636685589540578 2.8106471481473077 17.74380986022823 0 0 0
278 1 16.3413379995947 2.1854549625482402 17.768468784166974 0 0 0
234 2 14.023002123116079 6.954391355684858 16.92118675241419 0 0 0
254 2 3.255724162889464 5.263786719013174 17.850526193896997 0 0 0
203 1 11.73341926760564 3.301281730651593 16.63782227019977 0 0 0
279 2 16.93549518233943 3.711616365222183 18.13212646918042 0 0 0
954 2 19.418952756542673 0.37824286173168936 16.795431689201063 0 0 0
202 2 16.40006430265915 8.28489816052744 17.02288078311832 0 0 0
1191 2 4.3940255411965525 2.7678781554402985 17.788572226901792 1 -1 0
248 1 4.52852230273635 4.383421239869274 18.131019471243373 0 0 0
250 2 1.369663349593255 3.6521378415011627 20.153428653585816 0 0 0
260 2 9.233625455923647 8.426404961912125 20.206844496099947 0 0 0
251 2 4.911788531991384 4.750227066016518 19.72106355158171 0 0 0
282 2 0.8453509581817693 1.129808785502513 19.248985215722666 1 0 0
277 1 0.7900004770313018 2.1744569484864917 20.524397226356285 1 0 0
289 1 1.338389191332963 9.287220198850658 20.19485191840914 0 0 0
243 1 7.791164336210881 8.947539962554721 20.870069234144044 0 0 0
297 2 0.4597877815694448 6.046028841709189 20.638571289888294 0 0 0
244 2 6.788299699995845 9.481472213751992 19.739368768088898 0 0 0
304 2 2.9585192983709203 5.478991864556826 21.497467401020824 0 0 0
252 2 0.4655233710652546 8.286563120860702 19.130688453693768 0 0 0
274 2 16.032767866111215 5.607136584903304 20.601243341744954 0 0 0
269 1 14.54556479603738 5.125890486422061 20.860111960519095 0 0 0
264 1 17.81509846090693 3.1228950882441016 21.07655873721412 0 0 0
987 2 9.350301462770092 1.738382697740539 21.225784443415314 0 0 0
1035 2 9.859772525476123 2.4267606369937393 20.205140190079856 0 1 0
275 2 14.72972077943033 8.210423961566624 19.0215011931694 0 0 0
261 1 10.831598830307774 8.75573825672248 20.572616843146935 0 0 0
990 2 11.579526454628224 0.6012379249437314 19.04155127326035 0 0 0
237 1 10.200722948531105 1.6269650687326522 18.766366599130418 0 0 0
302 2 16.526437662532185 2.1871424846398826 20.606574520732956 0 0 0
280 2 18.132345865007473 4.3735144954502045 20.18989250018898 0 0 0
276 2 12.00655989307641 8.016797556202137 19.617367085749745 0 0 0
273 1 13.609911045413451 7.764667092556348 20.099558299478097 0 0 0
281 2 14.922516176853975 1.8818556757283784 18.545947073060045 0 0 0
272 2 18.362492224120032 6.402865140127264 18.90629885682983 0 0 0
267 1 14.937223867014735 2.2647124757850308 20.095767259802887 0 0 0
285 2 14.147760989230742 1.0630600596963529 20.91781496485721 0 0 0
270 1 17.07061242306338 5.262321345428952 19.191743471157913 0 0 0
271 2 14.128773331984208 3.6527854530344217 20.264511461265112 0 0 0
245 1 19.908402921756828 6.638563388056136 19.157776029770694 -1 0 0
283 2 13.452146073564137 6.17127121071269 20.343577010505904 0 0 0
305 1 1.42865519737179 4.919220519630445 21.280338939213994 0 0 0
263 2 19.276267915254014 2.204245973775136 21.07220313183182 0 0 0
296 1 14.068829547354786 9.58544089071499 22.659401599805573 0 0 0
298 2 15.567046731409226 9.585186567423204 23.448201521073294 0 0 0
303 2 2.1357457392681614 8.606702633707528 21.37925498473622 0 0 0
253 1 4.496450459285645 4.810701165940983 21.29781344323855 0 0 0
331 2 11.876279669350417 0.2888207103495615 22.20767000313099 0 0 0
1047 1 17.545196220419232 0.1015260929862026 23.46623479860516 0 0 0
286 2 2.0165279239576392 1.6343000706415616 21.509700406131735 1 1 0
315 2 0.7687385741591886 4.229163944767803 22.614868890559478 1 0 0
314 2 1.1192993285655266 7.3663489681870695 23.155166700800454 1 0 0
262 2 5.818740293779529 5.495995679642169 22.177408607662215 0 0 0
287 1 13.329586607992802 1.0541279746790841 22.30651116089968 0 0 0
266 2 7.226940678957476 7.68748249892125 21.692656745337302 0 0 0
301 1 3.348530980123885 2.086977116337478 22.40219868933646 0 0 0
1032 5 17.604088215130496 0.38996122683415213 21.96566398305409 0 0 0
249 2 4.348684281984216 3.2554290374368 21.84061754950024 0 0 0
299 2 14.327055419102035 4.9311169736889475 22.438616391522217 0 0 0
292 2 11.097101439941866 8.125898214720394 22.018673439921514 0 0 0
291 2 14.227452580455635 8.550113280796797 21.353435859566826 0 0 0
290 2 17.568888452777646 3.581544130047953 22.62476011429514 0 0 0
288 2 18.055865788422604 9.366017283308574 22.365974216314985 0 0 0
306 2 4.202773450091571 0.7300327586508281 22.620599690843193 0 0 0
300 1 6.620836732129631 6.7959280749677875 23.016003766281884 0 0 0
319 2 13.230238099784298 2.4843146019237574 23.02066264058719 0 0 0
284 2 5.5889707247038265 7.489671413599055 24.062648940472126 0 0 0
308 1 1.2171381593106099 3.5138712651567596 24.093382522976786 0 0 0
307 2 7.9433762136296595 6.819082289730051 24.077615793025377 0 0 0
310 1 8.918304603982993 7.68009618872299 25.134993006436247 0 0 0
312 1 4.448175039282914 7.896788575230406 25.256351001185923 0 0 0
338 2 4.6080864288521095 9.539475645989345 25.220523875582156 0 0 0
309 2 3.289106726654606 6.792401807487519 24.858774004244914 0 0 0
323 2 1.5798501700759335 4.731661505519845 25.113215258251977 0 0 0
337 2 0.05648362561999138 2.7819060245067884 24.852632844984377 1 0 0
320 2 2.5081282808620973 2.547942085932375 23.786292351766512 0 0 0
311 5 5.3007919428595205 2.668789085235738 24.94591604136479 0 0 0
1516 3 0.4723314350915798 7.14787059118483 24.087065485970058 1 1 0
350 1 2.7954877481815994 5.545593507705975 25.815846484740508 0 0 0
362 1 12.106247851698587 5.577087221995875 25.378507054400913 0 0 0
313 2 10.2682771068319 8.28078414790714 24.48734764483799 0 0 0
295 1 17.119747494660963 9.216151119050222 23.72916400939229 0 0 0
330 1 11.56123017095834 7.955892337743174 23.519684822909944 0 0 0
333 2 17.053298934805838 1.477403234956161 24.095694336821694 0 0 0
324 2 12.882108852541432 8.911914188827204 23.673595667126584 0 0 0
316 2 15.371944501641153 3.56914346234597 24.37186626951087 0 0 0
317 2 17.150241863764176 8.000930576976423 24.79785322579507 0 0 0
329 2 17.82153316372633 3.871709265463345 25.235433429268955 0 0 0
321 1 16.885144125558284 3.1284806579511644 24.003970618034064 0 0 0
332 1 13.960464236843604 3.8282359077021177 23.540444177012713 0 0 0
268 2 19.798370107432213 7.025085473305952 25.020665234720152 0 0 0
318 2 11.809568556167493 6.330319254961348 23.83920916535568 0 0 0
325 2 13.14234394150283 4.5388475134450434 24.730311524605064 0 0 0
345 2 11.10753131532923 4.417321299249869 26.143829181664636 0 0 0
373 2 1.943025818465057 9.801273518749499 28.241042839014614 1 0 0
358 2 10.23769195190265 1.8737084657088956 25.945669175340765 0 1 0
1070 2 5.3852744425750645 0.09971546268407953 27.038082507009857 0 1 0
1101 1 6.454804841989734 1.1016865092523231 27.79852201362523 0 1 0
347 1 5.27937641489226 7.167005285308892 28.02123425516815 0 0 0
342 1 17.01596939698777 2.3635738517823497 28.0015411161738 0 0 0
340 1 8.03505217420332 6.386675016969916 27.741244142898253 0 0 0
1094 2 7.954506482857822 0.9917603942772308 27.14376845577075 0 1 0
1066 1 9.217924476807395 0.6034131667598246 26.157633155854555 0 1 0
339 1 3.8318117173757 0.29203447675864824 26.58389241490515 0 0 0
364 2 8.361911972973491 9.05153296312483 25.75790776464245 0 0 0
375 2 6.544809838906823 6.622478383189252 27.179148646104327 0 0 0
351 2 4.460850081268932 7.86986138046771 26.87557856311055 0 0 0
327 2 3.5290239349130488 1.924542223798823 26.682265002661527 0 0 0
355 1 11.20677406718568 2.9152428342471373 26.695881647010257 0 0 0
357 2 12.473274208116777 6.7042055332922015 26.437634337139727 0 0 0
328 1 17.16578335818134 8.749105215462027 26.288780333084986 0 0 0
367 2 18.144153774015717 1.9606944746878308 26.927179343601633 -1 0 0
343 1 13.947588829113046 2.325805022057989 27.93352821987786 0 0 0
354 2 15.509660020410465 2.554800492285569 27.285085806576937 0 0 0
359 2 19.83370145459385 4.016486574932417 27.273630765794938 0 0 0
377 2 18.04144957911317 8.725921226663493 27.605661583572722 0 0 0
365 2 12.896360603834928 2.6021601983138214 26.697958411208212 0 0 0
361 2 9.153885246694902 6.756618563591983 26.57527956687443 0 0 0
360 2 15.856518277585197 9.259275330017855 27.025221504501513 0 0 0
344 2 5.845855604866043 2.6811482285527735 27.577098801874918 0 1 0
368 1 19.007956675341408 3.2021759222820108 26.005532368716406 0 0 0
341 2 2.112417295254984 6.178853296431747 27.114295371459562 0 0 0
363 2 4.156205375362643 4.6070566194673575 26.196896793381903 0 0 0
336 1 4.68380156057332 3.0659526658349137 26.414244371807182 0 0 0
369 2 5.297564545567193 8.164112337006573 29.35733321580127 0 0 0
374 1 2.868988261493281 6.0400617206362615 28.546181846402447 0 0 0
376 2 2.408700019865581 4.602844115998011 29.12769946258318 0 0 0
427 2 2.6641854503587394 7.4019246307596545 29.492607740257164 0 0 0
384 2 8.035887079425263 7.1829362066565 29.163170113068766 0 0 0
1096 2 6.492120392121748 0.3597223926734667 29.31743861688232 0 1 0
372 2 8.228899285759777 4.825590821227732 28.263268794534635 0 0 0
1129 1 9.777406790174178 9.90863946614406 29.774594049626817 0 0 0
1131 2 18.76651256236662 0.2945765346332263 30.572211793494493 0 0 0
425 2 0.12690533989703445 4.621882149944094 30.09228852702663 0 1 0
371 2 4.503574336350939 5.84277604272727 28.444606625655595 0 0 0
390 1 1.5078871607566446 3.573401639258573 30.050404186058255 0 0 0
370 2 0.3604765848679705 2.321838524414798 29.38211741205078 0 0 0
419 2 19.958982353409063 8.91432272026198 30.284105209961766 0 0 0
428 1 3.9452954343674262 8.190435797770482 30.271841947962052 0 0 0
356 2 13.661935061576209 0.7465524988936988 28.396849081540704 0 0 0
418 2 9.167290833103444 3.1007346526089226 30.121854463960645 0 0 0
397 1 8.486790408911894 4.541772848132539 29.853235312259386 0 0 0
348 1 16.742482332843075 9.302362213540317 28.50762252338977 0 0 0
385 2 13.826988656191567 3.4201632344823163 29.180111094505616 0 0 0
1123 1 0.1829959066536979 0.7140939615457275 29.840067648213047 1 0 0
378 2 16.824995912992414 1.3385223164596542 29.22830528713785 0 0 0
346 1 19.297179735238686 3.8746019407368104 28.843347316069263 0 0 0
383 2 17.715276281538497 3.748119877807367 28.82160106008871 0 0 0
379 2 16.192374486714858 8.464505005442668 29.819243849361047 2 2 0
382 2 10.990156315727805 2.617133020624991 28.35622847901748 0 0 0
410 1 10.663225547109791 2.578433345289708 29.913520577316007 0 1 0
381 5 17.154710033589502 6.050791452764608 29.975026918194526 0 0 0
420 1 7.085040862007831 7.76174517071309 32.87371723228101 0 0 0
386 2 9.998218801905397 8.396043884780676 30.364923845430514 0 0 0
1186 1 0.7199353414097431 0.1316272218509337 32.59354008382563 1 1 0
1119 2 3.979697459457456 0.3943134606276162 30.25389439507218 0 1 0
387 1 3.884853129683163 1.7456096522589581 31.272982844043202 0 0 0
416 2 5.197480040809595 2.6249712303292734 30.72602831797892 0 1 0
421 1 6.0137532236722935 3.687095484643393 31.649895228231834 0 1 0
417 2 7.075868215158346 4.393860841389178 30.663077350961466 0 0 0
395 2 9.674921484775108 5.595613766864193 30.451196415871806 0 0 0
431 2 4.2704501176427945 7.061004569447821 31.332726080738727 0 0 0
1113 2 1.2625200686839206 0.3081086618116151 31.041631670108277 1 1 0
423 2 4.673183401174342 4.6248493723306385 32.13922758396417 0 0 0
398 2 8.190616866261273 7.082149919950922 31.965024506341 0 0 0
436 2 6.583317436613839 9.251481450981483 32.300801935249325 0 0 0
424 2 3.688730025377689 9.652951404155274 30.98587255532156 0 0 0
435 1 4.474746886858123 6.094621274475283 32.70874562497108 0 0 0
433 2 2.4164553805607127 2.701851649890376 30.995148794344345 1 1 0
394 2 3.855094419576648 1.5086060480669061 32.851049706806386 0 0 0
1158 1 9.672573610664934 0.5543777245378806 32.69593799568506 0 1 0
405 2 11.930296878176028 3.1023274805596723 30.803397589640657 0 0 0
413 1 16.7248140443182 7.294758841808848 30.843228649105903 0 0 0
404 2 18.096644652210443 7.691753344759178 31.629821496601114 0 0 0
406 2 15.496019995047938 6.729372714821497 31.79130433099044 0 0 0
399 2 14.287127064955465 4.363201087709417 31.68277091782148 0 0 0
408 1 14.42289573450135 5.694417640993025 32.55298325622256 0 0 0
401 2 12.909895953214448 6.440227483676237 32.444405346270756 0 0 0
411 2 14.084205489691835 1.7811588300541479 31.516770340130467 0 0 0
412 1 13.571972578890957 3.2070221244393977 30.81013956681292 0 0 0
402 2 17.67793938969943 2.4097653921917366 31.798784215093058 0 0 0
415 1 14.6146999551146 0.11075419336075917 31.632127737164268 0 0 0
414 1 17.38492730090962 1.097360764261568 30.835851127365355 0 0 0
392 2 16.269457970363852 0.20771799343741076 31.55721941668385 0 0 0
403 2 10.275212037733121 0.6870388106945026 30.996214560562436 0 1 0
409 5 11.570896285147567 9.993316146337696 32.454335907428046 0 0 0
388 1 9.021658358049452 7.128998551976844 30.498055608178053 0 0 0
1229 2 19.79597004068088 1.502314642238015 32.880780935046644 -1 1 0
426 2 19.64069154988566 4.163700300677667 32.65367712620941 0 0 0
1179 2 9.112637072583185 9.639699006013988 33.26755780995406 0 0 0
434 2 6.64859337658375 3.1170196122171356 32.968706188666474 0 1 0
490 2 0.7050728632061167 6.8869649154691785 32.9889573668451 0 0 0
447 2 8.893292535336233 1.8579833791199873 33.28043065787075 0 1 0
430 1 3.5469141983517316 0.2502691999086682 33.924412887415635 1 0 0
448 1 2.1695297167549294 7.525126105052164 33.942921208487796 0 0 0
396 2 2.3888523093693728 8.973619040575135 33.11596721519813 0 0 0
488 2 7.774299616112974 7.836113194430022 34.33489731921848 1 0 0
438 1 7.817514350590748 2.7976996280943163 34.033745141823516 0 1 0